PROGRAM STARTED AT: 2019-12-29 13:35:32

reading dasdinfo..

reading dasdinfo complete,total 3750 devices prepared.

building new dasdmap..

updating new dasdmap..
data polished:
['400D', '3390', 'A', 'BPAJK1', 'PRIV/RSDNT', '0']
updating label 3000 VL3000
updating sgname 3000 VL3000 SGAPPABN
updating label 3001 VL3001
updating sgname 3001 VL3001 SGAPPABN
updating label 3002 VL3002
updating sgname 3002 VL3002 SGAPPABN
updating label 3003 VL3003
updating sgname 3003 VL3003 SGAPPABN
updating label 3004 VL3004
updating sgname 3004 VL3004 SGAPPABN
updating label 3005 VL3005
updating sgname 3005 VL3005 SGAPPABN
updating label 3006 VL3006
updating sgname 3006 VL3006 SGAPPABN
updating label 3007 VL3007
updating sgname 3007 VL3007 SGAPPABN
updating label 3008 VL3008
updating sgname 3008 VL3008 SGAPPABN
updating label 3009 VL3009
updating sgname 3009 VL3009 SGAPPABN
updating label 300A VL300A
updating sgname 300A VL300A SGAPPABN
updating label 300B VL300B
updating sgname 300B VL300B SGAPPABN
updating label 300C VL300C
updating sgname 300C VL300C SGAPPABN
updating label 300D VL300D
updating sgname 300D VL300D SGAPPABN
updating label 300E VL300E
updating sgname 300E VL300E SGAPPABN
updating label 300F VL300F
updating sgname 300F VL300F SGAPPABN
updating label 3010 VL3010
updating sgname 3010 VL3010 SGAPPABN
updating label 3011 VL3011
updating sgname 3011 VL3011 SGAPPABN
updating label 3012 VL3012
updating sgname 3012 VL3012 SGAPPABN
updating label 3013 VL3013
updating sgname 3013 VL3013 SGAPPABN
updating label 3014 VL3014
updating sgname 3014 VL3014 SGAPPABN
updating label 3015 VL3015
updating sgname 3015 VL3015 SGAPPABN
updating label 3016 VL3016
updating sgname 3016 VL3016 SGAPPABN
updating label 3017 VL3017
updating sgname 3017 VL3017 SGAPPABN
updating label 3018 VL3018
updating sgname 3018 VL3018 SGAPPABN
updating label 3019 VL3019
updating sgname 3019 VL3019 SGAPPABN
updating label 301A VL301A
updating sgname 301A VL301A SGAPPABN
updating label 301B VL301B
updating sgname 301B VL301B SGAPPABN
updating label 301C VL301C
updating sgname 301C VL301C SGAPPABN
updating label 301D VL301D
updating sgname 301D VL301D SGAPPABN
updating label 301E VL301E
updating sgname 301E VL301E SGAPPABN
updating label 301F VL301F
updating sgname 301F VL301F SGAPPABN
updating label 3020 VL3020
updating sgname 3020 VL3020 SGAPPABN
updating label 3021 VL3021
updating sgname 3021 VL3021 SGAPPABN
updating label 3022 VL3022
updating sgname 3022 VL3022 SGAPPABN
updating label 3023 VL3023
updating sgname 3023 VL3023 SGAPPABN
updating label 3024 VL3024
updating sgname 3024 VL3024 SGAPPABN
updating label 3025 VL3025
updating sgname 3025 VL3025 SGAPPABN
updating label 3026 VL3026
updating sgname 3026 VL3026 SGAPPABN
updating label 3027 VL3027
updating sgname 3027 VL3027 SGAPPABN
updating label 3028 VL3028
updating sgname 3028 VL3028 SGAPPABN
updating label 3029 VL3029
updating sgname 3029 VL3029 SGAPPABN
updating label 302A VL302A
updating sgname 302A VL302A SGAPPABN
updating label 302B VL302B
updating sgname 302B VL302B SGAPPABN
updating label 302C VL302C
updating sgname 302C VL302C SGAPPABN
updating label 302D VL302D
updating sgname 302D VL302D SGAPPABN
updating label 302E VL302E
updating sgname 302E VL302E SGAPPABN
updating label 302F VL302F
updating sgname 302F VL302F SGAPPABN
updating label 3030 BJ3030
updating sgname 3030 BJ3030 SGAPPABN
updating label 3031 BJ3031
updating sgname 3031 BJ3031 SGAPPABN
updating label 3032 BJ3032
updating sgname 3032 BJ3032 SGAPPABN
updating label 3033 BJ3033
updating sgname 3033 BJ3033 SGAPPABN
updating label 3034 BJ3034
updating sgname 3034 BJ3034 SGAPPABN
updating label 3035 BJ3035
updating sgname 3035 BJ3035 SGAPPABN
updating label 3036 BJ3036
updating sgname 3036 BJ3036 SGAPPABN
updating label 3037 BJ3037
updating sgname 3037 BJ3037 SGAPPABN
updating label 3038 BJ3038
updating sgname 3038 BJ3038 SGAPPABN
updating label 3039 BJ3039
updating sgname 3039 BJ3039 SGAPPABN
updating label 303A BJ303A
updating sgname 303A BJ303A SGAPPABN
updating label 303B BJ303B
updating sgname 303B BJ303B SGAPPABN
updating label 303C BJ303C
updating sgname 303C BJ303C SGAPPABN
updating label 303D BJ303D
updating sgname 303D BJ303D SGAPPABN
updating label 303E BJ303E
updating sgname 303E BJ303E SGAPPABN
updating label 303F BJ303F
updating sgname 303F BJ303F SGAPPABN
updating label 3040 BJ3040
updating sgname 3040 BJ3040 SGAPPABN
updating label 3041 BJ3041
updating sgname 3041 BJ3041 SGAPPABN
updating label 3042 BJ3042
updating sgname 3042 BJ3042 SGAPPABN
updating label 3043 BJ3043
updating sgname 3043 BJ3043 SGAPPABN
updating label 3044 BJ3044
updating sgname 3044 BJ3044 SGAPPABN
updating label 3045 BJ3045
updating sgname 3045 BJ3045 SGAPPABN
updating label 3046 BJ3046
updating sgname 3046 BJ3046 SGAPPABN
updating label 3047 BJ3047
updating sgname 3047 BJ3047 SGAPPABN
updating label 3048 BJ3048
updating sgname 3048 BJ3048 SGAPPABN
updating label 3049 BJ3049
updating sgname 3049 BJ3049 SGAPPABN
updating label 304A BJ304A
updating sgname 304A BJ304A SGAPPABN
updating label 304B BJ304B
updating sgname 304B BJ304B SGAPPABN
updating label 304C BJ304C
updating sgname 304C BJ304C SGAPPABN
updating label 304D BJ304D
updating sgname 304D BJ304D SGAPPABN
updating label 304E BJ304E
updating sgname 304E BJ304E SGAPPABN
updating label 304F BJ304F
updating sgname 304F BJ304F SGAPPABN
updating label 3050 BJ3050
updating label 3051 BJ3051
updating sgname 3051 BJ3051 SGAPPABN
updating label 3052 BJ3052
updating sgname 3052 BJ3052 SGAPPABN
updating label 3053 BJ3053
updating sgname 3053 BJ3053 SGAPPABN
updating label 3054 BJ3054
updating sgname 3054 BJ3054 SGAPPABN
updating label 3055 BJ3055
updating sgname 3055 BJ3055 SGAPPABN
updating label 3056 BJ3056
updating sgname 3056 BJ3056 SGAPPABN
updating label 3057 BJ3057
updating sgname 3057 BJ3057 SGAPPABN
updating label 3058 BJ3058
updating sgname 3058 BJ3058 SGAPPABN
updating label 3059 BJ3059
updating sgname 3059 BJ3059 SGAPPABN
updating label 305A BJ305A
updating sgname 305A BJ305A SGAPPABN
updating label 305B BJ305B
updating sgname 305B BJ305B SGAPPABN
updating label 305C BJ305C
updating sgname 305C BJ305C SGAPPABN
updating label 305D BJ305D
updating sgname 305D BJ305D SGAPPABN
updating label 305E BJ305E
updating sgname 305E BJ305E SGAPPABN
updating label 305F BJ305F
updating sgname 305F BJ305F SGAPPABN
updating label 3060 BJ3060
updating sgname 3060 BJ3060 SGAPPABN
updating label 3061 BJ3061
updating sgname 3061 BJ3061 SGAPPABN
updating label 3062 BJ3062
updating sgname 3062 BJ3062 SGAPPABN
updating label 3063 BJ3063
updating sgname 3063 BJ3063 SGAPPABN
updating label 3064 BJ3064
updating sgname 3064 BJ3064 SGAPPABN
updating label 3065 BJ3065
updating sgname 3065 BJ3065 SGAPPABN
updating label 3066 BJ3066
updating sgname 3066 BJ3066 SGAPPABN
updating label 3067 BJ3067
updating sgname 3067 BJ3067 SGAPPABN
updating label 3068 BJ3068
updating sgname 3068 BJ3068 SGAPPABN
updating label 3069 BJ3069
updating sgname 3069 BJ3069 SGAPPABN
updating label 306A BJ306A
updating sgname 306A BJ306A SGAPPABN
updating label 306B BJ306B
updating sgname 306B BJ306B SGAPPABN
updating label 306C BJ306C
updating sgname 306C BJ306C SGAPPABN
updating label 306D BJ306D
updating sgname 306D BJ306D SGAPPABN
updating label 306E BJ306E
updating sgname 306E BJ306E SGAPPABN
updating label 306F BJ306F
updating sgname 306F BJ306F SGAPPABN
updating label 3070 BJ3070
updating sgname 3070 BJ3070 SGAPPABN
updating label 3071 BJ3071
updating sgname 3071 BJ3071 SGAPPABN
updating label 3072 BJ3072
updating sgname 3072 BJ3072 SGAPPABN
updating label 3073 BJ3073
updating sgname 3073 BJ3073 SGAPPABN
updating label 3074 BJ3074
updating sgname 3074 BJ3074 SGAPPABN
updating label 3075 BJ3075
updating sgname 3075 BJ3075 SGAPPABN
updating label 3076 BJ3076
updating sgname 3076 BJ3076 SGAPPABN
updating label 3077 BJ3077
updating sgname 3077 BJ3077 SGAPPABN
updating label 3078 BJ3078
updating sgname 3078 BJ3078 SGAPPABN
updating label 3079 BJ3079
updating sgname 3079 BJ3079 SGAPPABN
updating label 307A BJ307A
updating sgname 307A BJ307A SGAPPABN
updating label 307B BJ307B
updating sgname 307B BJ307B SGAPPABN
updating label 307C BJ307C
updating sgname 307C BJ307C SGAPPABN
updating label 307D BJ307D
updating sgname 307D BJ307D SGAPPABN
updating label 307E BJ307E
updating sgname 307E BJ307E SGAPPABN
updating label 307F BJ307F
updating sgname 307F BJ307F SGAPPABN
updating label 3300 BJ3300
updating sgname 3300 BJ3300 SGAPPAML
updating label 3301 BJ3301
updating sgname 3301 BJ3301 SGAPPAML
updating label 3302 BJ3302
updating sgname 3302 BJ3302 SGAPPAML
updating label 3303 BJ3303
updating sgname 3303 BJ3303 SGAPPAML
updating label 3304 BJ3304
updating sgname 3304 BJ3304 SGAPPAML
updating label 3305 BJ3305
updating sgname 3305 BJ3305 SGAPPAML
updating label 3306 BJ3306
updating sgname 3306 BJ3306 SGAPPAML
updating label 3307 BJ3307
updating sgname 3307 BJ3307 SGAPPAML
updating label 3308 BJ3308
updating sgname 3308 BJ3308 SGAPPAML
updating label 3309 BJ3309
updating sgname 3309 BJ3309 SGAPPAML
updating label 330A BJ330A
updating sgname 330A BJ330A SGAPPAML
updating label 330B BJ330B
updating sgname 330B BJ330B SGAPPAML
updating label 330C BJ330C
updating sgname 330C BJ330C SGAPPAML
updating label 330D BJ330D
updating sgname 330D BJ330D SGAPPAML
updating label 330E BJ330E
updating sgname 330E BJ330E SGAPPAML
updating label 330F BJ330F
updating sgname 330F BJ330F SGAPPAML
updating label 3310 BJ3310
updating sgname 3310 BJ3310 SGAPPAML
updating label 3311 BJ3311
updating sgname 3311 BJ3311 SGAPPAML
updating label 3312 BJ3312
updating sgname 3312 BJ3312 SGAPPAML
updating label 3313 BJ3313
updating sgname 3313 BJ3313 SGAPPAML
updating label 3314 BJ3314
updating sgname 3314 BJ3314 SGAPPAML
updating label 3315 BJ3315
updating sgname 3315 BJ3315 SGAPPAML
updating label 3316 BJ3316
updating sgname 3316 BJ3316 SGAPPAML
updating label 3317 BJ3317
updating sgname 3317 BJ3317 SGAPPAML
updating label 3318 BJ3318
updating sgname 3318 BJ3318 SGAPPAML
updating label 3319 BJ3319
updating sgname 3319 BJ3319 SGAPPAML
updating label 331A BJ331A
updating sgname 331A BJ331A SGAPPAML
updating label 331B BJ331B
updating sgname 331B BJ331B SGAPPAML
updating label 331C BJ331C
updating sgname 331C BJ331C SGAPPAML
updating label 331D BJ331D
updating sgname 331D BJ331D SGAPPAML
updating label 331E BJ331E
updating sgname 331E BJ331E SGAPPAML
updating label 331F BJ331F
updating sgname 331F BJ331F SGAPPAML
updating label 3320 BJ3320
updating sgname 3320 BJ3320 SGAPPAML
updating label 3321 BJ3321
updating sgname 3321 BJ3321 SGAPPAML
updating label 3322 BJ3322
updating sgname 3322 BJ3322 SGAPPAML
updating label 3323 BJ3323
updating sgname 3323 BJ3323 SGAPPAML
updating label 3324 BJ3324
updating sgname 3324 BJ3324 SGAPPAML
updating label 3325 BJ3325
updating sgname 3325 BJ3325 SGAPPAML
updating label 3326 BJ3326
updating sgname 3326 BJ3326 SGAPPAML
updating label 3327 BJ3327
updating sgname 3327 BJ3327 SGAPPAML
updating label 3328 BJ3328
updating sgname 3328 BJ3328 SGAPPAML
updating label 3329 BJ3329
updating sgname 3329 BJ3329 SGAPPAML
updating label 332A BJ332A
updating sgname 332A BJ332A SGAPPAML
updating label 332B BJ332B
updating sgname 332B BJ332B SGAPPAML
updating label 332C BJ332C
updating sgname 332C BJ332C SGAPPAML
updating label 332D BJ332D
updating sgname 332D BJ332D SGAPPAML
updating label 332E BJ332E
updating sgname 332E BJ332E SGAPPAML
updating label 332F BJ332F
updating sgname 332F BJ332F SGAPPAML
updating label 3330 BJ3330
updating sgname 3330 BJ3330 SGAPPAML
updating label 3331 BJ3331
updating sgname 3331 BJ3331 SGAPPAML
updating label 3332 BJ3332
updating sgname 3332 BJ3332 SGAPPAML
updating label 3333 BJ3333
updating sgname 3333 BJ3333 SGAPPAML
updating label 3334 BJ3334
updating sgname 3334 BJ3334 SGAPPAML
updating label 3335 BJ3335
updating sgname 3335 BJ3335 SGAPPAML
updating label 3336 BJ3336
updating sgname 3336 BJ3336 SGAPPAML
updating label 3337 BJ3337
updating sgname 3337 BJ3337 SGAPPAML
updating label 3338 BJ3338
updating sgname 3338 BJ3338 SGAPPAML
updating label 3339 BJ3339
updating sgname 3339 BJ3339 SGAPPAML
updating label 333A BJ333A
updating sgname 333A BJ333A SGAPPAML
updating label 333B BJ333B
updating sgname 333B BJ333B SGAPPAML
updating label 333C BJ333C
updating sgname 333C BJ333C SGAPPAML
updating label 333D BJ333D
updating sgname 333D BJ333D SGAPPAML
updating label 333E BJ333E
updating sgname 333E BJ333E SGAPPAML
updating label 333F BJ333F
updating sgname 333F BJ333F SGAPPAML
updating label 3340 BJ3340
updating sgname 3340 BJ3340 SGAPPAML
updating label 3341 BJ3341
updating sgname 3341 BJ3341 SGAPPAML
updating label 3342 BJ3342
updating sgname 3342 BJ3342 SGAPPAML
updating label 3343 BJ3343
updating sgname 3343 BJ3343 SGAPPAML
updating label 3344 VL3344
updating label 3345 VL3345
updating label 3346 VL3346
updating label 3347 VL3347
updating label 3348 VL3348
updating label 3349 VL3349
updating label 334A VL334A
updating label 334B VL334B
updating label 334C VL334C
updating label 334D VL334D
updating label 334E VL334E
updating label 334F VL334F
updating label 3350 VL3350
updating label 3351 VL3351
updating label 3352 VL3352
updating label 3353 VL3353
updating label 3354 VL3354
updating label 3355 VL3355
updating label 3356 VL3356
updating label 3357 VL3357
updating label 3358 VL3358
updating label 3359 VL3359
updating label 335A VL335A
updating label 335B VL335B
updating label 335C VL335C
updating label 335D VL335D
updating label 335E VL335E
updating label 335F VL335F
updating label 3360 VL3360
updating label 3361 VL3361
updating label 3362 VL3362
updating label 3363 BJ3363
updating sgname 3363 BJ3363 SGAPPAML
updating label 3364 BJ3364
updating sgname 3364 BJ3364 SGAPPAML
updating label 3365 BJ3365
updating sgname 3365 BJ3365 SGAPPAML
updating label 3366 BJ3366
updating sgname 3366 BJ3366 SGAPPAML
updating label 3367 VL3367
updating label 3368 VL3368
updating label 3369 VL3369
updating label 336A VL336A
updating label 336B VL336B
updating label 336C VL336C
updating label 336D VL336D
updating label 336E VL336E
updating label 336F VL336F
updating label 3370 VL3370
updating label 3371 VL3371
updating label 3372 VL3372
updating label 3373 VL3373
updating label 3374 VL3374
updating label 3375 VL3375
updating label 3376 VL3376
updating label 3377 VL3377
updating label 3378 VL3378
updating label 3379 VL3379
updating label 337A VL337A
updating label 337B VL337B
updating label 337C VL337C
updating label 337D VL337D
updating label 337E VL337E
updating label 337F VL337F
updating label 3400 VL3400
updating sgname 3400 VL3400 SGAPABLO
updating label 3401 VL3401
updating sgname 3401 VL3401 SGAPABLO
updating label 3402 VL3402
updating sgname 3402 VL3402 SGAPABLO
updating label 3403 VL3403
updating sgname 3403 VL3403 SGAPABLO
updating label 3404 VL3404
updating sgname 3404 VL3404 SGAPABLO
updating label 3405 VL3405
updating sgname 3405 VL3405 SGAPABLO
updating label 3406 VL3406
updating sgname 3406 VL3406 SGAPABLO
updating label 3407 VL3407
updating sgname 3407 VL3407 SGAPABLO
updating label 3408 VL3408
updating sgname 3408 VL3408 SGAPABLO
updating label 3409 VL3409
updating sgname 3409 VL3409 SGAPABLO
updating label 340A VL340A
updating sgname 340A VL340A SGAPABLO
updating label 340B VL340B
updating sgname 340B VL340B SGAPABLO
updating label 340C VL340C
updating sgname 340C VL340C SGAPABLO
updating label 340D VL340D
updating sgname 340D VL340D SGAPABLO
updating label 340E VL340E
updating sgname 340E VL340E SGAPABLO
updating label 340F VL340F
updating sgname 340F VL340F SGAPABLO
updating label 3410 VL3410
updating sgname 3410 VL3410 SGAPABLO
updating label 3411 VL3411
updating sgname 3411 VL3411 SGAPABLO
updating label 3412 VL3412
updating sgname 3412 VL3412 SGAPABLO
updating label 3413 VL3413
updating sgname 3413 VL3413 SGAPABLO
updating label 3414 VL3414
updating sgname 3414 VL3414 SGAPABLO
updating label 3415 VL3415
updating sgname 3415 VL3415 SGAPABLO
updating label 3416 VL3416
updating sgname 3416 VL3416 SGAPABLO
updating label 3417 VL3417
updating sgname 3417 VL3417 SGAPABLO
updating label 3418 VL3418
updating sgname 3418 VL3418 SGAPABLO
updating label 3419 VL3419
updating sgname 3419 VL3419 SGAPABLO
updating label 341A VL341A
updating sgname 341A VL341A SGAPABLO
updating label 341B VL341B
updating sgname 341B VL341B SGAPABLO
updating label 341C VL341C
updating sgname 341C VL341C SGAPABLO
updating label 341D VL341D
updating sgname 341D VL341D SGAPABLO
updating label 341E VL341E
updating sgname 341E VL341E SGAPABLO
updating label 341F VL341F
updating sgname 341F VL341F SGAPABLO
updating label 3420 VL3420
updating sgname 3420 VL3420 SGAPABLO
updating label 3421 VL3421
updating sgname 3421 VL3421 SGAPABLO
updating label 3422 VL3422
updating sgname 3422 VL3422 SGAPABLO
updating label 3423 VL3423
updating sgname 3423 VL3423 SGAPABLO
updating label 3424 VL3424
updating sgname 3424 VL3424 SGAPABLO
updating label 3425 VL3425
updating sgname 3425 VL3425 SGAPABLO
updating label 3426 VL3426
updating sgname 3426 VL3426 SGAPABLO
updating label 3427 VL3427
updating sgname 3427 VL3427 SGAPABLO
updating label 3428 VL3428
updating sgname 3428 VL3428 SGAPABLO
updating label 3429 VL3429
updating sgname 3429 VL3429 SGAPABLO
updating label 342A VL342A
updating sgname 342A VL342A SGAPABLO
updating label 342B VL342B
updating sgname 342B VL342B SGAPABLO
updating label 342C VL342C
updating sgname 342C VL342C SGAPABLO
updating label 342D VL342D
updating sgname 342D VL342D SGAPABLO
updating label 342E VL342E
updating sgname 342E VL342E SGAPABLO
updating label 342F VL342F
updating sgname 342F VL342F SGAPABLO
updating label 3430 VL3430
updating sgname 3430 VL3430 SGAPABLO
updating label 3431 VL3431
updating sgname 3431 VL3431 SGAPABLO
updating label 3432 VL3432
updating sgname 3432 VL3432 SGAPABLO
updating label 3433 VL3433
updating sgname 3433 VL3433 SGAPABLO
updating label 3434 VL3434
updating sgname 3434 VL3434 SGAPABLO
updating label 3435 VL3435
updating sgname 3435 VL3435 SGAPABLO
updating label 3436 VL3436
updating sgname 3436 VL3436 SGAPABLO
updating label 3437 VL3437
updating sgname 3437 VL3437 SGAPABLO
updating label 3438 VL3438
updating sgname 3438 VL3438 SGAPABLO
updating label 3439 VL3439
updating sgname 3439 VL3439 SGAPABLO
updating label 343A VL343A
updating sgname 343A VL343A SGAPABLO
updating label 343B VL343B
updating sgname 343B VL343B SGAPABLO
updating label 343C VL343C
updating sgname 343C VL343C SGAPABLO
updating label 343D VL343D
updating sgname 343D VL343D SGAPABLO
updating label 343E VL343E
updating sgname 343E VL343E SGAPABLO
updating label 343F VL343F
updating sgname 343F VL343F SGAPABLO
updating label 3440 VL3440
updating sgname 3440 VL3440 SGAPABLO
updating label 3441 VL3441
updating sgname 3441 VL3441 SGAPABLO
updating label 3442 VL3442
updating sgname 3442 VL3442 SGAPABLO
updating label 3443 VL3443
updating sgname 3443 VL3443 SGAPABLO
updating label 3444 VL3444
updating sgname 3444 VL3444 SGAPABLO
updating label 3445 VL3445
updating sgname 3445 VL3445 SGAPABLO
updating label 3446 VL3446
updating sgname 3446 VL3446 SGAPABLO
updating label 3447 VL3447
updating sgname 3447 VL3447 SGAPABLO
updating label 3448 VL3448
updating sgname 3448 VL3448 SGAPABLO
updating label 3449 VL3449
updating sgname 3449 VL3449 SGAPABLO
updating label 344A VL344A
updating sgname 344A VL344A SGAPABLO
updating label 344B VL344B
updating sgname 344B VL344B SGAPABLO
updating label 344C VL344C
updating sgname 344C VL344C SGAPABLO
updating label 3500 VL3500
updating sgname 3500 VL3500 SGAPABLO
updating label 3501 VL3501
updating sgname 3501 VL3501 SGAPABLO
updating label 3502 VL3502
updating sgname 3502 VL3502 SGAPABLO
updating label 3503 VL3503
updating sgname 3503 VL3503 SGAPABLO
updating label 3504 VL3504
updating sgname 3504 VL3504 SGAPABLO
updating label 3505 VL3505
updating sgname 3505 VL3505 SGAPABLO
updating label 3506 VL3506
updating sgname 3506 VL3506 SGAPABLO
updating label 3507 VL3507
updating sgname 3507 VL3507 SGAPABLO
updating label 3508 VL3508
updating sgname 3508 VL3508 SGAPABLO
updating label 3509 VL3509
updating sgname 3509 VL3509 SGAPABLO
updating label 350A VL350A
updating sgname 350A VL350A SGAPABLO
updating label 350B VL350B
updating sgname 350B VL350B SGAPABLO
updating label 350C VL350C
updating sgname 350C VL350C SGAPABLO
updating label 350D VL350D
updating sgname 350D VL350D SGAPABLO
updating label 350E VL350E
updating sgname 350E VL350E SGAPABLO
updating label 350F VL350F
updating sgname 350F VL350F SGAPABLO
updating label 3510 VL3510
updating sgname 3510 VL3510 SGAPABLO
updating label 3511 VL3511
updating sgname 3511 VL3511 SGAPABLO
updating label 3512 VL3512
updating sgname 3512 VL3512 SGAPABLO
updating label 3513 VL3513
updating sgname 3513 VL3513 SGAPABLO
updating label 3514 VL3514
updating sgname 3514 VL3514 SGAPABLO
updating label 3515 VL3515
updating sgname 3515 VL3515 SGAPABLO
updating label 3516 VL3516
updating sgname 3516 VL3516 SGAPABLO
updating label 3517 VL3517
updating sgname 3517 VL3517 SGAPABLO
updating label 3518 VL3518
updating sgname 3518 VL3518 SGAPABLO
updating label 3519 VL3519
updating sgname 3519 VL3519 SGAPABLO
updating label 351A VL351A
updating sgname 351A VL351A SGAPABLO
updating label 351B VL351B
updating sgname 351B VL351B SGAPABLO
updating label 351C VL351C
updating sgname 351C VL351C SGAPABLO
updating label 351D VL351D
updating label 351E VL351E
updating sgname 351E VL351E SGAPABLO
updating label 351F VL351F
updating sgname 351F VL351F SGAPABLO
updating label 3520 BJ3520
updating sgname 3520 BJ3520 SGAPABLO
updating label 3521 BJ3521
updating sgname 3521 BJ3521 SGAPABLO
updating label 3522 BJ3522
updating sgname 3522 BJ3522 SGAPABLO
updating label 3523 BJ3523
updating sgname 3523 BJ3523 SGAPABLO
updating label 3524 BJ3524
updating sgname 3524 BJ3524 SGAPABLO
updating label 3525 BJ3525
updating sgname 3525 BJ3525 SGAPABLO
updating label 3526 BJ3526
updating sgname 3526 BJ3526 SGAPABLO
updating label 3527 BJ3527
updating sgname 3527 BJ3527 SGAPABLO
updating label 3528 BJ3528
updating sgname 3528 BJ3528 SGAPABLO
updating label 3529 BJ3529
updating sgname 3529 BJ3529 SGAPABLO
updating label 352A BJ352A
updating sgname 352A BJ352A SGAPABLO
updating label 352B BJ352B
updating sgname 352B BJ352B SGAPABLO
updating label 352C BJ352C
updating sgname 352C BJ352C SGAPABLO
updating label 352D BJ352D
updating sgname 352D BJ352D SGAPABLO
updating label 352E BJ352E
updating sgname 352E BJ352E SGAPABLO
updating label 352F BJ352F
updating sgname 352F BJ352F SGAPABLO
updating label 3530 BJ3530
updating sgname 3530 BJ3530 SGAPABLO
updating label 3531 BJ3531
updating sgname 3531 BJ3531 SGAPABLO
updating label 3532 VL3532
updating label 3533 VL3533
updating label 3534 VL3534
updating label 3535 VL3535
updating label 3536 VL3536
updating label 3537 VL3537
updating label 3538 VL3538
updating label 3539 VL3539
updating label 353A VL353A
updating label 353B VL353B
updating label 353C VL353C
updating label 353D VL353D
updating label 353E VL353E
updating label 353F VL353F
updating label 3540 VL3540
updating label 3541 VL3541
updating label 3542 VL3542
updating label 3543 VL3543
updating label 3544 VL3544
updating label 3545 VL3545
updating label 3546 VL3546
updating label 3547 VL3547
updating label 3548 VL3548
updating label 3549 VL3549
updating label 354A VL354A
updating label 354B VL354B
updating label 354C VL354C
updating label 3700 BPSF11
updating sgname 3700 BPSF11 SGSMF
updating label 3701 BPSF12
updating sgname 3701 BPSF12 SGSMF
updating label 3702 BPSF13
updating sgname 3702 BPSF13 SGSMF
updating label 3703 BPSF14
updating sgname 3703 BPSF14 SGSMF
updating label 3704 BPSF15
updating sgname 3704 BPSF15 SGSMF
updating label 3705 BPSF16
updating sgname 3705 BPSF16 SGSMF
updating label 3706 BPSF17
updating sgname 3706 BPSF17 SGSMF
updating label 3707 BPSF18
updating sgname 3707 BPSF18 SGSMF
updating label 3708 BPSF19
updating sgname 3708 BPSF19 SGSMF
updating label 3709 BPSF1A
updating sgname 3709 BPSF1A SGSMF
updating label 370A BPSF1B
updating sgname 370A BPSF1B SGSMF
updating label 370B BPSF1C
updating sgname 370B BPSF1C SGSMF
updating label 370C BPSF1D
updating sgname 370C BPSF1D SGSMF
updating label 370D BPAPS7
updating sgname 370D BPAPS7 SGMQPSET
updating label 370E BPAPS8
updating sgname 370E BPAPS8 SGMQPSET
updating label 370F BPAPS9
updating sgname 370F BPAPS9 SGMQPSET
updating label 3710 BPAPSA
updating sgname 3710 BPAPSA SGMQPSET
updating label 3711 BPAPSB
updating sgname 3711 BPAPSB SGMQPSET
updating label 3712 BPAPSC
updating sgname 3712 BPAPSC SGMQPSET
updating label 3713 BPAPSD
updating sgname 3713 BPAPSD SGMQPSET
updating label 3714 BPAPSE
updating sgname 3714 BPAPSE SGMQPSET
updating label 3715 BPAPSF
updating sgname 3715 BPAPSF SGMQPSET
updating label 3716 BPAPSG
updating sgname 3716 BPAPSG SGMQPSET
updating label 3717 BPAPSH
updating sgname 3717 BPAPSH SGMQPSET
updating label 3718 BPAPSI
updating sgname 3718 BPAPSI SGMQPSET
updating label 3719 BPSF1E
updating sgname 3719 BPSF1E SGSMF
updating label 371A BPSF1F
updating sgname 371A BPSF1F SGSMF
updating label 371B BPSF20
updating sgname 371B BPSF20 SGSMF
updating label 371C BPSF21
updating sgname 371C BPSF21 SGSMF
updating label 371D BPSF22
updating sgname 371D BPSF22 SGSMF
updating label 371E BPSF23
updating sgname 371E BPSF23 SGSMF
updating label 371F BPSF24
updating sgname 371F BPSF24 SGSMF
updating label 3720 BPSF25
updating sgname 3720 BPSF25 SGSMF
updating label 3721 BPSF26
updating sgname 3721 BPSF26 SGSMF
updating label 3722 BPSF27
updating sgname 3722 BPSF27 SGSMF
updating label 3723 BPSF28
updating sgname 3723 BPSF28 SGSMF
updating label 3724 BPSF29
updating sgname 3724 BPSF29 SGSMF
updating label 3725 BPSF2A
updating sgname 3725 BPSF2A SGSMF
updating label 3726 BJ3726
updating sgname 3726 BJ3726 SGSMF
updating label 3727 BJ3727
updating sgname 3727 BJ3727 SGSMF
updating label 3728 BJ3728
updating sgname 3728 BJ3728 SGSMF
updating label 3729 BJ3729
updating sgname 3729 BJ3729 SGSMF
updating label 372A BJ372A
updating sgname 372A BJ372A SGSMF
updating label 372B BJ372B
updating sgname 372B BJ372B SGSMF
updating label 372C BJ372C
updating sgname 372C BJ372C SGSMF
updating label 372D BJ372D
updating sgname 372D BJ372D SGSMF
updating label 372E BJ372E
updating sgname 372E BJ372E SGSMF
updating label 372F BJ372F
updating sgname 372F BJ372F SGSMF
updating label 3730 VL3730
updating label 3731 VL3731
updating label 3732 VL3732
updating label 3733 VL3733
updating label 3734 VL3734
updating label 3735 VL3735
updating label 3736 VL3736
updating label 3737 VL3737
updating label 3738 VL3738
updating label 3739 VL3739
updating label 373A VL373A
updating label 373B VL373B
updating label 373C VL373C
updating label 373D VL373D
updating label 373E VL373E
updating label 373F VL373F
updating label 3740 VL3740
updating label 3741 VL3741
updating label 3742 VL3742
updating label 3743 VL3743
updating label 3744 VL3744
updating label 3745 VL3745
updating label 3746 VL3746
updating label 3747 VL3747
updating label 3748 VL3748
updating label 3749 VL3749
updating label 374A VL374A
updating label 374B VL374B
updating label 374C VL374C
updating label 4000 BPACD1
updating label 4001 BPACD3
updating label 4002 BPACD5
updating label 4003 BPAMQ4
updating label 4004 BPACI2
updating label 4005 BPACI3
updating label 4006 BPACT1
updating label 4007 BPACT2
updating label 4008 BPACT3
updating label 4009 BPADL1
updating label 400A BPADL2
updating label 400B BPADL3
updating label 400C BPADL4
updating label 400D BPAJK1
updating label 400E BPAMQ1
updating label 400F BPAMQ2
updating label 4010 BPAOM1
updating label 4011 BPAOM2
updating label 4012 BPAOM3
updating label 4013 BPAOM4
updating label 4014 BPAOM5
updating label 4015 BPAOM6
updating label 4016 BPAPG1
updating label 4017 BPAPG2
updating label 4018 BPAPG3
updating label 4019 BPAPG4
updating label 401A BPACIA
updating label 401B BPAIA1
updating label 401C BPASF4
updating label 401D BPASF5
updating label 401E BPASF7
updating label 401F BPAMQ5
updating label 4020 BPATS1
updating sgname 4020 BPATS1 SGTSO
updating label 4021 BPALG1
updating sgname 4021 BPALG1 SGLOG
updating label 4022 BPAB31
updating sgname 4022 BPAB31 SGLOG
updating label 4023 BPAE36
updating sgname 4023 BPAE36 SGSORT
updating label 4024 BPAE37
updating sgname 4024 BPAE37 SGSORT
updating label 4025 BPAE38
updating sgname 4025 BPAE38 SGSORT
updating label 4026 BPAE39
updating sgname 4026 BPAE39 SGSORT
updating label 4027 BPAE40
updating sgname 4027 BPAE40 SGSORT
updating label 4028 BPASTA
updating sgname 4028 BPASTA SGSORT
updating label 4029 BPASTB
updating sgname 4029 BPASTB SGSORT
updating label 402A BPASTC
updating sgname 402A BPASTC SGSORT
updating label 402B BPASTD
updating sgname 402B BPASTD SGSORT
updating label 402C BPASTE
updating sgname 402C BPASTE SGSORT
updating label 402D BPASTF
updating sgname 402D BPASTF SGSORT
updating label 402E BPASTG
updating sgname 402E BPASTG SGSORT
updating label 402F BPASTH
updating sgname 402F BPASTH SGSORT
updating label 4030 BPASTI
updating sgname 4030 BPASTI SGSORT
updating label 4031 BPASTJ
updating sgname 4031 BPASTJ SGSORT
updating label 4032 BPASTK
updating sgname 4032 BPASTK SGSORT
updating label 4033 BPASTL
updating sgname 4033 BPASTL SGSORT
updating label 4034 BPADP1
updating sgname 4034 BPADP1 SGDUMP
updating label 4035 BPADP2
updating sgname 4035 BPADP2 SGDUMP
updating label 4036 BPAARA
updating sgname 4036 BPAARA SGSMF
updating label 4037 BPAARB
updating sgname 4037 BPAARB SGSMF
updating label 4038 BPAARC
updating sgname 4038 BPAARC SGSMF
updating label 4039 BPAARD
updating sgname 4039 BPAARD SGSMF
updating label 403A BPAARE
updating sgname 403A BPAARE SGSMF
updating label 403B BPAARF
updating sgname 403B BPAARF SGSMF
updating label 403C BPAARG
updating sgname 403C BPAARG SGSMF
updating label 403D BPAARH
updating sgname 403D BPAARH SGSMF
updating label 403E BPAARI
updating sgname 403E BPAARI SGSMF
updating label 403F BPAARJ
updating sgname 403F BPAARJ SGSMF
updating label 4040 BPAARK
updating sgname 4040 BPAARK SGSMF
updating label 4041 BPAARL
updating sgname 4041 BPAARL SGSMF
updating label 4042 BPAARM
updating sgname 4042 BPAARM SGSMF
updating label 4043 BPAARN
updating sgname 4043 BPAARN SGSMF
updating label 4044 BPAARO
updating sgname 4044 BPAARO SGSMF
updating label 4045 BPAARP
updating sgname 4045 BPAARP SGSMF
updating label 4046 BPAARQ
updating sgname 4046 BPAARQ SGSMF
updating label 4047 BPAARR
updating sgname 4047 BPAARR SGSMF
updating label 4048 BPAARS
updating sgname 4048 BPAARS SGSMF
updating label 4049 BPAART
updating sgname 4049 BPAART SGSMF
updating label 404A BPAARU
updating sgname 404A BPAARU SGSMF
updating label 404B BPAARV
updating sgname 404B BPAARV SGSMF
updating label 404C BPAARW
updating sgname 404C BPAARW SGSMF
updating label 404D BPAARX
updating sgname 404D BPAARX SGSMF
updating label 404E BPARM3
updating label 404F BPAMQ6
updating label 4050 BPAEX1
updating sgname 4050 BPAEX1 SGSPILL
updating label 4051 BPAEX2
updating sgname 4051 BPAEX2 SGSPILL
updating label 4052 BPAEX3
updating sgname 4052 BPAEX3 SGSPILL
updating label 4053 BPAEX4
updating sgname 4053 BPAEX4 SGSPILL
updating label 4054 BPAEX5
updating sgname 4054 BPAEX5 SGSPILL
updating label 4055 BPAEX6
updating sgname 4055 BPAEX6 SGSPILL
updating label 4056 BPALG3
updating sgname 4056 BPALG3 SGLOG
updating label 4057 BPALG4
updating sgname 4057 BPALG4 SGLOG
updating label 4058 BPATS3
updating sgname 4058 BPATS3 SGTSO
updating label 4059 BPASTV
updating sgname 4059 BPASTV SGSORT
updating label 405A BPASTW
updating sgname 405A BPASTW SGSORT
updating label 405B BPASTX
updating sgname 405B BPASTX SGSORT
updating label 405C BPASTY
updating sgname 405C BPASTY SGSORT
updating label 405D BPASTZ
updating sgname 405D BPASTZ SGSORT
updating label 405E BPBRS4
updating label 405F BPCRS4
updating label 4060 BPACTT
updating label 4061 VL4061
updating label 4062 SHR001
updating label 4063 BPACI0
updating label 4064 BPST08
updating sgname 4064 BPST08 SGSORT
updating label 4065 BPST09
updating sgname 4065 BPST09 SGSORT
updating label 4066 BPST10
updating sgname 4066 BPST10 SGSORT
updating label 4067 BPST11
updating sgname 4067 BPST11 SGSORT
updating label 4068 BPBCI1
updating label 4069 BPBRS1
updating label 406A BPBRS2
updating label 406B BPBRS3
updating label 406C BPBCI0
updating label 406D BPCCI1
updating label 406E BPCRS1
updating label 406F BPCRS2
updating label 4070 BPCRS3
updating label 4071 BPCCI0
updating label 4072 BPAMQ0
updating label 4073 BPBMQ0
updating label 4074 BPABK1
updating label 4075 BPCMQ0
updating label 4076 BPACI4
updating label 4077 SHRVL1
updating sgname 4077 SHRVL1 SGSHR
updating label 4078 BPSF08
updating sgname 4078 BPSF08 SGSMF
updating label 4079 BPSF09
updating sgname 4079 BPSF09 SGSMF
updating label 407A BPSF10
updating sgname 407A BPSF10 SGSMF
updating label 407B BPALG5
updating sgname 407B BPALG5 SGLOG
updating label 407C VL407C
updating label 407D VL407D
updating label 407E VL407E
updating label 407F VL407F
updating label 4100 BPACD2
updating label 4101 BPACD4
updating label 4102 BPAPG5
updating label 4103 BPAPG6
updating label 4104 BPARM1
updating label 4105 BPARM2
updating label 4106 BPASP1
updating label 4107 BPASP2
updating label 4108 BPASP3
updating label 4109 BPASP4
updating label 410A BPAS01
updating label 410B BPATW1
updating label 410C BPAWK1
updating label 410D BPAWK2
updating label 410E BPCW01
updating label 410F BPCW02
updating label 4110 BPAM00
updating label 4111 BPASF1
updating label 4112 BPASF2
updating label 4113 BPASF3
updating label 4114 BPASM1
updating label 4115 BPASM2
updating label 4116 BPASM3
updating label 4117 BPASM4
updating label 4118 BPASM5
updating label 4119 BPALD1
updating sgname 4119 BPALD1 SGAPPLOD
updating label 411A BPAUT1
updating label 411B BPAMQ3
updating label 411C BPASF6
updating label 411D BPASF8
updating label 411E BPASF9
updating label 411F BPASFA
updating label 4120 BPATS2
updating sgname 4120 BPATS2 SGTSO
updating label 4121 BPALG2
updating sgname 4121 BPALG2 SGLOG
updating label 4122 BPAB32
updating sgname 4122 BPAB32 SGLOG
updating label 4123 BPASTM
updating sgname 4123 BPASTM SGSORT
updating label 4124 BPASTN
updating sgname 4124 BPASTN SGSORT
updating label 4125 BPASTO
updating sgname 4125 BPASTO SGSORT
updating label 4126 BPASTP
updating sgname 4126 BPASTP SGSORT
updating label 4127 BPASTQ
updating sgname 4127 BPASTQ SGSORT
updating label 4128 BPASTR
updating sgname 4128 BPASTR SGSORT
updating label 4129 BPASTS
updating sgname 4129 BPASTS SGSORT
updating label 412A BPASTT
updating sgname 412A BPASTT SGSORT
updating label 412B BPASTU
updating sgname 412B BPASTU SGSORT
updating label 412C BPAST1
updating sgname 412C BPAST1 SGSORT
updating label 412D BPAST2
updating sgname 412D BPAST2 SGSORT
updating label 412E BPAST3
updating sgname 412E BPAST3 SGSORT
updating label 412F BPAST4
updating sgname 412F BPAST4 SGSORT
updating label 4130 BPAST5
updating sgname 4130 BPAST5 SGSORT
updating label 4131 BPAST6
updating sgname 4131 BPAST6 SGSORT
updating label 4132 BPAST7
updating sgname 4132 BPAST7 SGSORT
updating label 4133 BPAST8
updating sgname 4133 BPAST8 SGSORT
updating label 4134 BPAST9
updating sgname 4134 BPAST9 SGSORT
updating label 4135 BPAHS1
updating sgname 4135 BPAHS1 SGHSM
updating label 4136 BPAQL1
updating sgname 4136 BPAQL1 SGARC
updating label 4137 BPAARY
updating sgname 4137 BPAARY SGSMF
updating label 4138 BPAARZ
updating sgname 4138 BPAARZ SGSMF
updating label 4139 BPAAR1
updating label 413A BPAAR2
updating sgname 413A BPAAR2 SGSMF
updating label 413B BPAAR3
updating sgname 413B BPAAR3 SGSMF
updating label 413C BPAAR4
updating sgname 413C BPAAR4 SGSMF
updating label 413D BPAAR5
updating sgname 413D BPAAR5 SGSMF
updating label 413E BPAAR6
updating sgname 413E BPAAR6 SGSMF
updating label 413F BPAAR7
updating sgname 413F BPAAR7 SGSMF
updating label 4140 BPAAR8
updating sgname 4140 BPAAR8 SGSMF
updating label 4141 BPAAR9
updating sgname 4141 BPAAR9 SGSMF
updating label 4142 BPAASA
updating sgname 4142 BPAASA SGSMF
updating label 4143 BPAASB
updating sgname 4143 BPAASB SGSMF
updating label 4144 BPAASC
updating sgname 4144 BPAASC SGSMF
updating label 4145 BPAAS1
updating sgname 4145 BPAAS1 SGSMF
updating label 4146 BPAAS2
updating sgname 4146 BPAAS2 SGSMF
updating label 4147 BPAAS3
updating sgname 4147 BPAAS3 SGSMF
updating label 4148 BPAAS4
updating sgname 4148 BPAAS4 SGSMF
updating label 4149 BPAAS5
updating sgname 4149 BPAAS5 SGSMF
updating label 414A BPAAS6
updating sgname 414A BPAAS6 SGSMF
updating label 414B BPAAS7
updating sgname 414B BPAAS7 SGSMF
updating label 414C BPAAS8
updating sgname 414C BPAAS8 SGSMF
updating label 414D BPAAS9
updating sgname 414D BPAAS9 SGSMF
updating label 414E VL414E
updating label 414F VL414F
updating label 4150 BPAEX7
updating sgname 4150 BPAEX7 SGSPILL
updating label 4151 BPAEX8
updating sgname 4151 BPAEX8 SGSPILL
updating label 4152 BPAE41
updating sgname 4152 BPAE41 SGSPILL
updating label 4153 BPAE42
updating sgname 4153 BPAE42 SGSPILL
updating label 4154 BPAE43
updating sgname 4154 BPAE43 SGSPILL
updating label 4155 BPAE44
updating sgname 4155 BPAE44 SGSPILL
updating label 4156 BPAPS1
updating sgname 4156 BPAPS1 SGMQPSET
updating label 4157 BPAPS2
updating sgname 4157 BPAPS2 SGMQPSET
updating label 4158 BPAPS3
updating sgname 4158 BPAPS3 SGMQPSET
updating label 4159 BPAPS4
updating sgname 4159 BPAPS4 SGMQPSET
updating label 415A BPAPS5
updating sgname 415A BPAPS5 SGMQPSET
updating label 415B BPAPS6
updating sgname 415B BPAPS6 SGMQPSET
updating label 415C BPAOM7
updating sgname 415C BPAOM7 SGOMEG
updating label 415D BPAOM8
updating sgname 415D BPAOM8 SGOMEG
updating label 415E BPAOM9
updating sgname 415E BPAOM9 SGOMEG
updating label 415F BPAOMA
updating sgname 415F BPAOMA SGOMEG
updating label 4160 BPAOMB
updating sgname 4160 BPAOMB SGOMEG
updating label 4161 BPAOMC
updating sgname 4161 BPAOMC SGOMEG
updating label 4162 BPARS4
updating label 4163 BPST01
updating sgname 4163 BPST01 SGSORT
updating label 4164 BPST02
updating sgname 4164 BPST02 SGSORT
updating label 4165 BPST03
updating sgname 4165 BPST03 SGSORT
updating label 4166 BPST04
updating sgname 4166 BPST04 SGSORT
updating label 4167 BPST05
updating sgname 4167 BPST05 SGSORT
updating label 4168 BPST06
updating sgname 4168 BPST06 SGSORT
updating label 4169 BPST07
updating sgname 4169 BPST07 SGSORT
updating label 416A BPSF01
updating sgname 416A BPSF01 SGSMF
updating label 416B BPSF02
updating sgname 416B BPSF02 SGSMF
updating label 416C BPSF03
updating sgname 416C BPSF03 SGSMF
updating label 416D BPSF04
updating sgname 416D BPSF04 SGSMF
updating label 416E BPSF05
updating sgname 416E BPSF05 SGSMF
updating label 416F BPSF06
updating sgname 416F BPSF06 SGSMF
updating label 4170 BPSF07
updating sgname 4170 BPSF07 SGSMF
updating label 4171 BPACA1
updating sgname 4171 BPACA1 SGCALOG
updating label 4172 BPACA2
updating sgname 4172 BPACA2 SGCALOG
updating label 4173 BPACA3
updating sgname 4173 BPACA3 SGCALOG
updating label 4174 VL3700
updating label 4175 BPACI1
updating label 4176 BPARS1
updating label 4177 BPARS2
updating label 4178 BPARS3
updating label 4179 VL4179
updating label 417A BPAAT1
updating sgname 417A BPAAT1 SGSMF
updating label 417B BPAAT2
updating sgname 417B BPAAT2 SGSMF
updating label 417C BPAAT3
updating sgname 417C BPAAT3 SGSMF
updating label 417D BPAAT4
updating sgname 417D BPAAT4 SGSMF
updating label 417E BPAAT5
updating sgname 417E BPAAT5 SGSMF
updating label 417F BPAAT6
updating sgname 417F BPAAT6 SGSMF
updating label 4200 BPAF71
updating sgname 4200 BPAF71 SGAPPATH
updating label 4201 BPAF72
updating sgname 4201 BPAF72 SGAPPATH
updating label 4202 BPAF73
updating sgname 4202 BPAF73 SGAPPATH
updating label 4203 BPAF74
updating sgname 4203 BPAF74 SGAPPATH
updating label 4204 BPAF75
updating sgname 4204 BPAF75 SGAPPATH
updating label 4205 BPAF76
updating sgname 4205 BPAF76 SGAPPATH
updating label 4206 BPAF62
updating sgname 4206 BPAF62 SGAPPATH
updating label 4207 BPAF63
updating sgname 4207 BPAF63 SGAPPATH
updating label 4208 BPAF64
updating sgname 4208 BPAF64 SGAPPATH
updating label 4209 BPAF65
updating sgname 4209 BPAF65 SGAPPATH
updating label 420A BPAF66
updating sgname 420A BPAF66 SGAPPATH
updating label 420B BPAF67
updating sgname 420B BPAF67 SGAPPATH
updating label 420C BPAF68
updating sgname 420C BPAF68 SGAPPATH
updating label 420D BPAF69
updating sgname 420D BPAF69 SGAPPATH
updating label 420E BPAF70
updating sgname 420E BPAF70 SGAPPATH
updating label 420F BPAF77
updating sgname 420F BPAF77 SGAPPATH
updating label 4210 BPAF78
updating sgname 4210 BPAF78 SGAPPATH
updating label 4211 BPAF79
updating sgname 4211 BPAF79 SGAPPATH
updating label 4212 BPAF80
updating sgname 4212 BPAF80 SGAPPATH
updating label 4213 BPAF81
updating sgname 4213 BPAF81 SGAPPATH
updating label 4214 BPAF86
updating sgname 4214 BPAF86 SGAPPATH
updating label 4215 BPAF87
updating sgname 4215 BPAF87 SGAPPATH
updating label 4216 BPAF88
updating sgname 4216 BPAF88 SGAPPATH
updating label 4217 BPAF89
updating sgname 4217 BPAF89 SGAPPATH
updating label 4218 BPAF90
updating sgname 4218 BPAF90 SGAPPATH
updating label 4219 BPAF91
updating sgname 4219 BPAF91 SGAPPATH
updating label 421A BPAF92
updating sgname 421A BPAF92 SGAPPATH
updating label 421B BPAF93
updating sgname 421B BPAF93 SGAPPATH
updating label 421C BPAF94
updating label 421D BPAI01
updating sgname 421D BPAI01 SGAPPATH
updating label 421E BPAI02
updating sgname 421E BPAI02 SGAPPATH
updating label 421F BPAI03
updating sgname 421F BPAI03 SGAPPATH
updating label 4220 BPAI04
updating sgname 4220 BPAI04 SGAPPATH
updating label 4221 BPAI05
updating sgname 4221 BPAI05 SGAPPATH
updating label 4222 BPAI06
updating sgname 4222 BPAI06 SGAPPATH
updating label 4223 BPAI07
updating sgname 4223 BPAI07 SGAPPATH
updating label 4224 BPAI08
updating sgname 4224 BPAI08 SGAPPATH
updating label 4225 BPAI09
updating sgname 4225 BPAI09 SGAPPATH
updating label 4226 BPAI10
updating sgname 4226 BPAI10 SGAPPATH
updating label 4227 BPAI11
updating sgname 4227 BPAI11 SGAPPATH
updating label 4228 BPAI12
updating sgname 4228 BPAI12 SGAPPATH
updating label 4229 BPAI13
updating sgname 4229 BPAI13 SGAPPATH
updating label 422A BPAI14
updating sgname 422A BPAI14 SGAPPATH
updating label 422B BPAI15
updating sgname 422B BPAI15 SGAPPATH
updating label 422C BPAI16
updating sgname 422C BPAI16 SGAPPATH
updating label 422D BPAI17
updating sgname 422D BPAI17 SGAPPATH
updating label 422E BPAI18
updating sgname 422E BPAI18 SGAPPATH
updating label 422F BPAI19
updating sgname 422F BPAI19 SGAPPATH
updating label 4230 BPAI20
updating sgname 4230 BPAI20 SGAPPATH
updating label 4231 BPAI21
updating sgname 4231 BPAI21 SGAPPATH
updating label 4232 BPAI22
updating sgname 4232 BPAI22 SGAPPATH
updating label 4233 BPAI23
updating sgname 4233 BPAI23 SGAPPATH
updating label 4234 BPAI24
updating sgname 4234 BPAI24 SGAPPATH
updating label 4235 BPAI25
updating sgname 4235 BPAI25 SGAPPATH
updating label 4236 BPAI26
updating sgname 4236 BPAI26 SGAPPATH
updating label 4237 BPAI27
updating sgname 4237 BPAI27 SGAPPATH
updating label 4238 BPAI28
updating sgname 4238 BPAI28 SGAPPATH
updating label 4239 BPAI29
updating sgname 4239 BPAI29 SGAPPATH
updating label 423A BPAI30
updating sgname 423A BPAI30 SGAPPATH
updating label 423B BPAI31
updating sgname 423B BPAI31 SGAPPATH
updating label 423C BPAI32
updating sgname 423C BPAI32 SGAPPATH
updating label 423D BPAI33
updating sgname 423D BPAI33 SGAPPATH
updating label 423E BPAI34
updating sgname 423E BPAI34 SGAPPATH
updating label 423F BPAI35
updating sgname 423F BPAI35 SGAPPATH
updating label 4240 BPAI36
updating sgname 4240 BPAI36 SGAPPATH
updating label 4241 BPAI37
updating sgname 4241 BPAI37 SGAPPATH
updating label 4242 BPAI38
updating sgname 4242 BPAI38 SGAPPATH
updating label 4243 BPAI39
updating sgname 4243 BPAI39 SGAPPATH
updating label 4244 BPAI40
updating sgname 4244 BPAI40 SGAPPATH
updating label 4245 BPAI41
updating sgname 4245 BPAI41 SGAPPATH
updating label 4246 BPAI42
updating sgname 4246 BPAI42 SGAPPATH
updating label 4247 BPAI43
updating sgname 4247 BPAI43 SGAPPATH
updating label 4248 BPAI44
updating sgname 4248 BPAI44 SGAPPATH
updating label 4249 BPAI45
updating sgname 4249 BPAI45 SGAPPATH
updating label 424A BPAI46
updating sgname 424A BPAI46 SGAPPATH
updating label 424B BPAI47
updating sgname 424B BPAI47 SGAPPATH
updating label 424C BPAI48
updating sgname 424C BPAI48 SGAPPATH
updating label 424D BPAI49
updating sgname 424D BPAI49 SGAPPATH
updating label 424E BPAI50
updating sgname 424E BPAI50 SGAPPATH
updating label 424F BPAI51
updating sgname 424F BPAI51 SGAPPATH
updating label 4250 BPAI52
updating sgname 4250 BPAI52 SGAPPATH
updating label 4251 BPAI53
updating sgname 4251 BPAI53 SGAPPATH
updating label 4252 BPAI54
updating sgname 4252 BPAI54 SGAPPATH
updating label 4253 BPAI55
updating sgname 4253 BPAI55 SGAPPATH
updating label 4254 BPAI56
updating sgname 4254 BPAI56 SGAPPATH
updating label 4255 BPAI57
updating sgname 4255 BPAI57 SGAPPATH
updating label 4256 BPAI58
updating sgname 4256 BPAI58 SGAPPATH
updating label 4257 BPAI59
updating sgname 4257 BPAI59 SGAPPATH
updating label 4258 BPAI60
updating sgname 4258 BPAI60 SGAPPATH
updating label 4259 BPACC1
updating label 425A BPAI61
updating sgname 425A BPAI61 SGAPPATH
updating label 425B BPAI62
updating sgname 425B BPAI62 SGAPPATH
updating label 425C BPAI63
updating sgname 425C BPAI63 SGAPPATH
updating label 425D BPAI64
updating sgname 425D BPAI64 SGAPPATH
updating label 425E BPAI65
updating sgname 425E BPAI65 SGAPPATH
updating label 425F BPAI66
updating sgname 425F BPAI66 SGAPPATH
updating label 4260 BPAI67
updating sgname 4260 BPAI67 SGAPPATH
updating label 4261 BPAI68
updating sgname 4261 BPAI68 SGAPPATH
updating label 4262 VL8362
updating label 4263 BPAI69
updating sgname 4263 BPAI69 SGAPPATH
updating label 4264 BPAI70
updating sgname 4264 BPAI70 SGAPPATH
updating label 4265 BPAI71
updating sgname 4265 BPAI71 SGAPPATH
updating label 4266 BPAI72
updating sgname 4266 BPAI72 SGAPPATH
updating label 4267 BPAI73
updating sgname 4267 BPAI73 SGAPPATH
updating label 4268 BPAI74
updating sgname 4268 BPAI74 SGAPPATH
updating label 4269 VL8369
updating label 426A VL836A
updating label 426B VL836B
updating label 426C VL836C
updating label 426D VL836D
updating label 426E VL836E
updating label 426F VL836F
updating label 4270 VL8370
updating label 4271 VL8371
updating label 4272 VL8372
updating label 4273 VL8373
updating label 4274 VL8374
updating label 4275 VL8375
updating label 4276 VL8376
updating label 4277 VL8377
updating label 4278 VL8378
updating label 4279 VL8379
updating label 427A VL837A
updating label 427B VL837B
updating label 427C VL837C
updating label 427D VL837D
updating label 427E VL837E
updating label 427F VL837F
updating label 4C00 BPAA67
updating sgname 4C00 BPAA67 SGAPPABO
updating label 4C01 BPAA68
updating sgname 4C01 BPAA68 SGAPPABO
updating label 4C02 BPAA69
updating sgname 4C02 BPAA69 SGAPPABO
updating label 4C03 BPAA70
updating sgname 4C03 BPAA70 SGAPPABO
updating label 4C04 BPAA71
updating sgname 4C04 BPAA71 SGAPPABO
updating label 4C05 BPAA72
updating sgname 4C05 BPAA72 SGAPPABO
updating label 4C06 BPAA83
updating sgname 4C06 BPAA83 SGAPPABO
updating label 4C07 BPAA84
updating sgname 4C07 BPAA84 SGAPPABO
updating label 4C08 BPAA73
updating sgname 4C08 BPAA73 SGAPPABO
updating label 4C09 BPAA74
updating sgname 4C09 BPAA74 SGAPPABO
updating label 4C0A BPAA75
updating sgname 4C0A BPAA75 SGAPPABO
updating label 4C0B BPAA76
updating sgname 4C0B BPAA76 SGAPPABO
updating label 4C0C BPAA77
updating sgname 4C0C BPAA77 SGAPPABO
updating label 4C0D BPAA78
updating sgname 4C0D BPAA78 SGAPPABO
updating label 4C0E BPAA79
updating sgname 4C0E BPAA79 SGAPPABO
updating label 4C0F BPAA80
updating sgname 4C0F BPAA80 SGAPPABO
updating label 4C10 BPAA81
updating sgname 4C10 BPAA81 SGAPPABO
updating label 4C11 BPAA82
updating sgname 4C11 BPAA82 SGAPPABO
updating label 4C12 BPAB01
updating sgname 4C12 BPAB01 SGAPPABO
updating label 4C13 BPAB02
updating sgname 4C13 BPAB02 SGAPPABO
updating label 4C14 BPAB03
updating sgname 4C14 BPAB03 SGAPPABO
updating label 4C15 BPAB04
updating sgname 4C15 BPAB04 SGAPPABO
updating label 4C16 BPAB05
updating sgname 4C16 BPAB05 SGAPPABO
updating label 4C17 BPAB16
updating sgname 4C17 BPAB16 SGAPPABO
updating label 4C18 BPAB17
updating sgname 4C18 BPAB17 SGAPPABO
updating label 4C19 BPAB18
updating sgname 4C19 BPAB18 SGAPPABO
updating label 4C1A BPAB19
updating sgname 4C1A BPAB19 SGAPPABO
updating label 4C1B BPAB20
updating sgname 4C1B BPAB20 SGAPPABO
updating label 4C1C BPAB21
updating sgname 4C1C BPAB21 SGAPPABO
updating label 4C1D BPAB06
updating sgname 4C1D BPAB06 SGAPPABO
updating label 4C1E BPAB07
updating sgname 4C1E BPAB07 SGAPPABO
updating label 4C1F BPAB08
updating sgname 4C1F BPAB08 SGAPPABO
updating label 4C20 BPAB09
updating sgname 4C20 BPAB09 SGAPPABO
updating label 4C21 BPAB10
updating sgname 4C21 BPAB10 SGAPPABO
updating label 4C22 BPAB11
updating sgname 4C22 BPAB11 SGAPPABO
updating label 4C23 BPAB12
updating sgname 4C23 BPAB12 SGAPPABO
updating label 4C24 BPAB13
updating sgname 4C24 BPAB13 SGAPPABO
updating label 4C25 BPAB14
updating sgname 4C25 BPAB14 SGAPPABO
updating label 4C26 BPAB15
updating sgname 4C26 BPAB15 SGAPPABO
updating label 4C27 BPAB22
updating sgname 4C27 BPAB22 SGAPPABO
updating label 4C28 BPAB23
updating sgname 4C28 BPAB23 SGAPPABO
updating label 4C29 BPAB24
updating sgname 4C29 BPAB24 SGAPPABO
updating label 4C2A BPAB25
updating sgname 4C2A BPAB25 SGAPPABO
updating label 4C2B BPAB26
updating sgname 4C2B BPAB26 SGAPPABO
updating label 4C2C BPAB27
updating sgname 4C2C BPAB27 SGAPPABO
updating label 4C2D BPAB28
updating sgname 4C2D BPAB28 SGAPPABO
updating label 4C2E BPAB29
updating sgname 4C2E BPAB29 SGAPPABO
updating label 4C2F BPAB30
updating sgname 4C2F BPAB30 SGAPPABO
updating label 4C30 BPAB34
updating sgname 4C30 BPAB34 SGAPPABO
updating label 4C31 BPAB35
updating sgname 4C31 BPAB35 SGAPPABO
updating label 4C32 BPAB36
updating sgname 4C32 BPAB36 SGAPPABO
updating label 4C33 BPAB37
updating sgname 4C33 BPAB37 SGAPPABO
updating label 4C34 BPAB38
updating sgname 4C34 BPAB38 SGAPPABO
updating label 4C35 BPAB39
updating sgname 4C35 BPAB39 SGAPPABO
updating label 4C36 BPAB50
updating sgname 4C36 BPAB50 SGAPPABO
updating label 4C37 BPAB51
updating sgname 4C37 BPAB51 SGAPPABO
updating label 4C38 BPAB40
updating sgname 4C38 BPAB40 SGAPPABO
updating label 4C39 BPAB41
updating sgname 4C39 BPAB41 SGAPPABO
updating label 4C3A BPAB42
updating sgname 4C3A BPAB42 SGAPPABO
updating label 4C3B BPAB43
updating sgname 4C3B BPAB43 SGAPPABO
updating label 4C3C BPAB44
updating sgname 4C3C BPAB44 SGAPPABO
updating label 4C3D BPAB45
updating sgname 4C3D BPAB45 SGAPPABO
updating label 4C3E BPAB46
updating sgname 4C3E BPAB46 SGAPPABO
updating label 4C3F BPAB47
updating sgname 4C3F BPAB47 SGAPPABO
updating label 4C40 BPAB48
updating sgname 4C40 BPAB48 SGAPPABO
updating label 4C41 BPAB49
updating sgname 4C41 BPAB49 SGAPPABO
updating label 4C42 BPAA01
updating sgname 4C42 BPAA01 SGAPPABO
updating label 4C43 BPAA02
updating sgname 4C43 BPAA02 SGAPPABO
updating label 4C44 BPAA12
updating sgname 4C44 BPAA12 SGAPPABO
updating label 4C45 BPAA13
updating sgname 4C45 BPAA13 SGAPPABO
updating label 4C46 BPAA14
updating sgname 4C46 BPAA14 SGAPPABO
updating label 4C47 BPAA15
updating sgname 4C47 BPAA15 SGAPPABO
updating label 4C48 BPAA16
updating sgname 4C48 BPAA16 SGAPPABO
updating label 4C49 BPAA85
updating sgname 4C49 BPAA85 SGAPPLAB
updating label 4C4A BPAA86
updating sgname 4C4A BPAA86 SGAPPLAB
updating label 4C4B BPAA87
updating sgname 4C4B BPAA87 SGAPPLAB
updating label 4C4C BPAA88
updating sgname 4C4C BPAA88 SGAPPLAB
updating label 4C4D BPAA99
updating sgname 4C4D BPAA99 SGAPPLAB
updating label 4C4E BPAA89
updating sgname 4C4E BPAA89 SGAPPLAB
updating label 4C4F BPAA90
updating sgname 4C4F BPAA90 SGAPPLAB
updating label 4C50 BPAA91
updating sgname 4C50 BPAA91 SGAPPLAB
updating label 4C51 BPAA92
updating sgname 4C51 BPAA92 SGAPPLAB
updating label 4C52 BPAA93
updating sgname 4C52 BPAA93 SGAPPLAB
updating label 4C53 BPAA94
updating sgname 4C53 BPAA94 SGAPPLAB
updating label 4C54 BPAA95
updating sgname 4C54 BPAA95 SGAPPLAB
updating label 4C55 BPAA96
updating sgname 4C55 BPAA96 SGAPPLAB
updating label 4C56 BPAA97
updating sgname 4C56 BPAA97 SGAPPLAB
updating label 4C57 BPAA98
updating sgname 4C57 BPAA98 SGAPPLAB
updating label 4C58 BPAB33
updating sgname 4C58 BPAB33 SGAPPLAB
updating label 4C59 BJ4C59
updating sgname 4C59 BJ4C59 SGAPPABO
updating label 4C5A BJ4C5A
updating sgname 4C5A BJ4C5A SGAPPABO
updating label 4C5B BJ4C5B
updating sgname 4C5B BJ4C5B SGAPPABO
updating label 4C5C BJ4C5C
updating sgname 4C5C BJ4C5C SGAPPABO
updating label 4C5D BPAJ01
updating sgname 4C5D BPAJ01 SGAPPABO
updating label 4C5E BPAJ02
updating sgname 4C5E BPAJ02 SGAPPABO
updating label 4C5F BPAJ03
updating sgname 4C5F BPAJ03 SGAPPABO
updating label 4C60 BPAJ04
updating sgname 4C60 BPAJ04 SGAPPABO
updating label 4C61 BPAJ05
updating sgname 4C61 BPAJ05 SGAPPABO
updating label 4C62 BPAJ06
updating sgname 4C62 BPAJ06 SGAPPABO
updating label 4C63 BXAA01
updating sgname 4C63 BXAA01 SGAPPDCS
updating label 4C64 BXAA02
updating sgname 4C64 BXAA02 SGAPPDCS
updating label 4C65 BXAA03
updating sgname 4C65 BXAA03 SGAPPDCS
updating label 4C66 BXAA04
updating sgname 4C66 BXAA04 SGAPPDCS
updating label 4C67 BXAA05
updating sgname 4C67 BXAA05 SGAPPDCS
updating label 4C68 BXAA06
updating sgname 4C68 BXAA06 SGAPPDCS
updating label 4C69 BPBM01
updating sgname 4C69 BPBM01 SGAPPAML
updating label 4C6A BPBM02
updating sgname 4C6A BPBM02 SGAPPAML
updating label 4C6B BPBM03
updating sgname 4C6B BPBM03 SGAPPAML
updating label 4C6C BPBM04
updating sgname 4C6C BPBM04 SGAPPAML
updating label 4C6D BPBM05
updating sgname 4C6D BPBM05 SGAPPAML
updating label 4C6E BPBM06
updating sgname 4C6E BPBM06 SGAPPAML
updating label 4C6F BPBM07
updating sgname 4C6F BPBM07 SGAPPAML
updating label 4C70 BPBM08
updating sgname 4C70 BPBM08 SGAPPAML
updating label 4C71 BPBM09
updating sgname 4C71 BPBM09 SGAPPAML
updating label 4C72 BPBM10
updating sgname 4C72 BPBM10 SGAPPAML
updating label 4C73 BPBM11
updating sgname 4C73 BPBM11 SGAPPAML
updating label 4C74 BPBM12
updating sgname 4C74 BPBM12 SGAPPAML
updating label 4C75 BPBM13
updating sgname 4C75 BPBM13 SGAPPAML
updating label 4C76 BPBM14
updating sgname 4C76 BPBM14 SGAPPAML
updating label 4C77 BPBM15
updating sgname 4C77 BPBM15 SGAPPAML
updating label 4C78 BXAA25
updating sgname 4C78 BXAA25 SGAPPDCS
updating label 4C79 BXAA26
updating sgname 4C79 BXAA26 SGAPPDCS
updating label 4C7A BXAA33
updating sgname 4C7A BXAA33 SGAPPDCS
updating label 4C7B BXAA34
updating sgname 4C7B BXAA34 SGAPPDCS
updating label 4C7C BXAA35
updating sgname 4C7C BXAA35 SGAPPDCS
updating label 4C7D BXAA45
updating sgname 4C7D BXAA45 SGAPPDCS
updating label 4C7E BJ4C7E
updating sgname 4C7E BJ4C7E SGAPPAML
updating label 4C7F BJ4C7F
updating sgname 4C7F BJ4C7F SGAPPAML
updating label 4D00 BPAC67
updating sgname 4D00 BPAC67 SGAPPABO
updating label 4D01 BPAC68
updating sgname 4D01 BPAC68 SGAPPABO
updating label 4D02 BPAC69
updating sgname 4D02 BPAC69 SGAPPABO
updating label 4D03 BPAC70
updating sgname 4D03 BPAC70 SGAPPABO
updating label 4D04 BPAC71
updating sgname 4D04 BPAC71 SGAPPABO
updating label 4D05 BPAC72
updating sgname 4D05 BPAC72 SGAPPABO
updating label 4D06 BPAC83
updating sgname 4D06 BPAC83 SGAPPABO
updating label 4D07 BPAC84
updating sgname 4D07 BPAC84 SGAPPABO
updating label 4D08 BPAC73
updating sgname 4D08 BPAC73 SGAPPABO
updating label 4D09 BPAC74
updating sgname 4D09 BPAC74 SGAPPABO
updating label 4D0A BPAC75
updating sgname 4D0A BPAC75 SGAPPABO
updating label 4D0B BPAC76
updating sgname 4D0B BPAC76 SGAPPABO
updating label 4D0C BPAC77
updating sgname 4D0C BPAC77 SGAPPABO
updating label 4D0D BPAC78
updating sgname 4D0D BPAC78 SGAPPABO
updating label 4D0E BPAC79
updating sgname 4D0E BPAC79 SGAPPABO
updating label 4D0F BPAC80
updating sgname 4D0F BPAC80 SGAPPABO
updating label 4D10 BPAC81
updating sgname 4D10 BPAC81 SGAPPABO
updating label 4D11 BPAC82
updating sgname 4D11 BPAC82 SGAPPABO
updating label 4D12 BPAD34
updating sgname 4D12 BPAD34 SGAPPABO
updating label 4D13 BPAD35
updating sgname 4D13 BPAD35 SGAPPABO
updating label 4D14 BPAD36
updating sgname 4D14 BPAD36 SGAPPABO
updating label 4D15 BPAD37
updating sgname 4D15 BPAD37 SGAPPABO
updating label 4D16 BPAD38
updating sgname 4D16 BPAD38 SGAPPABO
updating label 4D17 BPAD39
updating sgname 4D17 BPAD39 SGAPPABO
updating label 4D18 BPAD50
updating sgname 4D18 BPAD50 SGAPPABO
updating label 4D19 BPAD51
updating sgname 4D19 BPAD51 SGAPPABO
updating label 4D1A BPAD40
updating sgname 4D1A BPAD40 SGAPPABO
updating label 4D1B BPAD41
updating sgname 4D1B BPAD41 SGAPPABO
updating label 4D1C BPAD42
updating sgname 4D1C BPAD42 SGAPPABO
updating label 4D1D BPAD43
updating sgname 4D1D BPAD43 SGAPPABO
updating label 4D1E BPAD44
updating sgname 4D1E BPAD44 SGAPPABO
updating label 4D1F BPAD45
updating sgname 4D1F BPAD45 SGAPPABO
updating label 4D20 BPAD46
updating sgname 4D20 BPAD46 SGAPPABO
updating label 4D21 BPAD47
updating sgname 4D21 BPAD47 SGAPPABO
updating label 4D22 BPAD48
updating sgname 4D22 BPAD48 SGAPPABO
updating label 4D23 BPAD49
updating sgname 4D23 BPAD49 SGAPPABO
updating label 4D24 BPAE01
updating sgname 4D24 BPAE01 SGAPPABO
updating label 4D25 BPAE02
updating sgname 4D25 BPAE02 SGAPPABO
updating label 4D26 BPAE03
updating sgname 4D26 BPAE03 SGAPPABO
updating label 4D27 BPAE04
updating sgname 4D27 BPAE04 SGAPPABO
updating label 4D28 BPAE05
updating sgname 4D28 BPAE05 SGAPPABO
updating label 4D29 BPAE06
updating sgname 4D29 BPAE06 SGAPPABO
updating label 4D2A BPAE17
updating sgname 4D2A BPAE17 SGAPPABO
updating label 4D2B BPAE18
updating sgname 4D2B BPAE18 SGAPPABO
updating label 4D2C BPAE07
updating sgname 4D2C BPAE07 SGAPPABO
updating label 4D2D BPAE08
updating sgname 4D2D BPAE08 SGAPPABO
updating label 4D2E BPAE09
updating sgname 4D2E BPAE09 SGAPPABO
updating label 4D2F BPAE10
updating sgname 4D2F BPAE10 SGAPPABO
updating label 4D30 BPAE11
updating sgname 4D30 BPAE11 SGAPPABO
updating label 4D31 BPAE12
updating sgname 4D31 BPAE12 SGAPPABO
updating label 4D32 BPAE13
updating sgname 4D32 BPAE13 SGAPPABO
updating label 4D33 BPAE14
updating sgname 4D33 BPAE14 SGAPPABO
updating label 4D34 BPAE15
updating sgname 4D34 BPAE15 SGAPPABO
updating label 4D35 BPAE16
updating sgname 4D35 BPAE16 SGAPPABO
updating label 4D36 BPAC85
updating sgname 4D36 BPAC85 SGAPPLAB
updating label 4D37 BPAC86
updating sgname 4D37 BPAC86 SGAPPLAB
updating label 4D38 BPAC87
updating sgname 4D38 BPAC87 SGAPPLAB
updating label 4D39 BPAC88
updating sgname 4D39 BPAC88 SGAPPLAB
updating label 4D3A BPAC99
updating sgname 4D3A BPAC99 SGAPPLAB
updating label 4D3B BPAD01
updating sgname 4D3B BPAD01 SGAPPLAB
updating label 4D3C BPAD02
updating sgname 4D3C BPAD02 SGAPPLAB
updating label 4D3D BPAD03
updating sgname 4D3D BPAD03 SGAPPLAB
updating label 4D3E BPAD04
updating sgname 4D3E BPAD04 SGAPPLAB
updating label 4D3F BPAD05
updating sgname 4D3F BPAD05 SGAPPLAB
updating label 4D40 BPAC89
updating sgname 4D40 BPAC89 SGAPPLAB
updating label 4D41 BPAC90
updating sgname 4D41 BPAC90 SGAPPLAB
updating label 4D42 BPAC91
updating sgname 4D42 BPAC91 SGAPPLAB
updating label 4D43 BPAC92
updating sgname 4D43 BPAC92 SGAPPLAB
updating label 4D44 BPAC93
updating sgname 4D44 BPAC93 SGAPPLAB
updating label 4D45 BPAC94
updating sgname 4D45 BPAC94 SGAPPLAB
updating label 4D46 BPAC95
updating sgname 4D46 BPAC95 SGAPPLAB
updating label 4D47 BPAC96
updating sgname 4D47 BPAC96 SGAPPLAB
updating label 4D48 BPAC97
updating sgname 4D48 BPAC97 SGAPPLAB
updating label 4D49 BPAC98
updating sgname 4D49 BPAC98 SGAPPLAB
updating label 4D4A BPAD16
updating sgname 4D4A BPAD16 SGAPPLAB
updating label 4D4B BPAD17
updating sgname 4D4B BPAD17 SGAPPLAB
updating label 4D4C BPAD18
updating sgname 4D4C BPAD18 SGAPPLAB
updating label 4D4D BPAE19
updating sgname 4D4D BPAE19 SGAPPLAB
updating label 4D4E BPAE20
updating sgname 4D4E BPAE20 SGAPPLAB
updating label 4D4F BPAE21
updating sgname 4D4F BPAE21 SGAPPLAB
updating label 4D50 BPAE22
updating sgname 4D50 BPAE22 SGAPPLAB
updating label 4D51 BPAE33
updating sgname 4D51 BPAE33 SGAPPLAB
updating label 4D52 BPAE34
updating sgname 4D52 BPAE34 SGAPPLAB
updating label 4D53 BPAE35
updating sgname 4D53 BPAE35 SGAPPLAB
updating label 4D54 BPAE23
updating sgname 4D54 BPAE23 SGAPPLAB
updating label 4D55 BPAE24
updating sgname 4D55 BPAE24 SGAPPLAB
updating label 4D56 BPAE25
updating sgname 4D56 BPAE25 SGAPPLAB
updating label 4D57 BPAE26
updating sgname 4D57 BPAE26 SGAPPLAB
updating label 4D58 BPAE62
updating sgname 4D58 BPAE62 SGAPPLAB
updating label 4D59 BPAE63
updating sgname 4D59 BPAE63 SGAPPLAB
updating label 4D5A BPAE64
updating sgname 4D5A BPAE64 SGAPPLAB
updating label 4D5B BPAG43
updating sgname 4D5B BPAG43 SGAPPFTE
updating label 4D5C BPAG35
updating sgname 4D5C BPAG35 SGAPPRPT
updating label 4D5D BPAG36
updating sgname 4D5D BPAG36 SGAPPRPT
updating label 4D5E BPAG37
updating sgname 4D5E BPAG37 SGAPPRPT
updating label 4D5F BPAG38
updating sgname 4D5F BPAG38 SGAPPRPT
updating label 4D60 BPAH41
updating sgname 4D60 BPAH41 SGAPPSHD
updating label 4D61 BPAH42
updating sgname 4D61 BPAH42 SGAPPSHD
updating label 4D62 BPAH43
updating sgname 4D62 BPAH43 SGAPPSHD
updating label 4D63 BXAA09
updating sgname 4D63 BXAA09 SGAPPDCS
updating label 4D64 BXAA10
updating sgname 4D64 BXAA10 SGAPPDCS
updating label 4D65 BXAA11
updating sgname 4D65 BXAA11 SGAPPDCS
updating label 4D66 BXAA12
updating sgname 4D66 BXAA12 SGAPPDCS
updating label 4D67 BXAA13
updating sgname 4D67 BXAA13 SGAPPDCS
updating label 4D68 BXAA14
updating sgname 4D68 BXAA14 SGAPPDCS
updating label 4D69 BPBM16
updating sgname 4D69 BPBM16 SGAPPAML
updating label 4D6A BPBM17
updating sgname 4D6A BPBM17 SGAPPAML
updating label 4D6B BPBM18
updating sgname 4D6B BPBM18 SGAPPAML
updating label 4D6C BPBM19
updating sgname 4D6C BPBM19 SGAPPAML
updating label 4D6D BPBM20
updating sgname 4D6D BPBM20 SGAPPAML
updating label 4D6E BPBM21
updating sgname 4D6E BPBM21 SGAPPAML
updating label 4D6F BPBM22
updating sgname 4D6F BPBM22 SGAPPAML
updating label 4D70 BPBM23
updating sgname 4D70 BPBM23 SGAPPAML
updating label 4D71 BPBM24
updating sgname 4D71 BPBM24 SGAPPAML
updating label 4D72 BPBM25
updating sgname 4D72 BPBM25 SGAPPAML
updating label 4D73 BPBM26
updating sgname 4D73 BPBM26 SGAPPAML
updating label 4D74 BPBM27
updating sgname 4D74 BPBM27 SGAPPAML
updating label 4D75 BPBM28
updating sgname 4D75 BPBM28 SGAPPAML
updating label 4D76 BPBM29
updating sgname 4D76 BPBM29 SGAPPAML
updating label 4D77 BPBM30
updating sgname 4D77 BPBM30 SGAPPAML
updating label 4D78 BXAA27
updating sgname 4D78 BXAA27 SGAPPDCS
updating label 4D79 BXAA28
updating sgname 4D79 BXAA28 SGAPPDCS
updating label 4D7A BXAA36
updating sgname 4D7A BXAA36 SGAPPDCS
updating label 4D7B BXAA37
updating sgname 4D7B BXAA37 SGAPPDCS
updating label 4D7C BXAA38
updating sgname 4D7C BXAA38 SGAPPDCS
updating label 4D7D BXAA46
updating sgname 4D7D BXAA46 SGAPPDCS
updating label 4D7E BJ4D7E
updating sgname 4D7E BJ4D7E SGAPPAML
updating label 4D7F BJ4D7F
updating sgname 4D7F BJ4D7F SGAPPAML
updating label 4E00 BPAC01
updating sgname 4E00 BPAC01 SGAPPABO
updating label 4E01 BPAC02
updating sgname 4E01 BPAC02 SGAPPABO
updating label 4E02 BPAC03
updating sgname 4E02 BPAC03 SGAPPABO
updating label 4E03 BPAC04
updating sgname 4E03 BPAC04 SGAPPABO
updating label 4E04 BPAC05
updating sgname 4E04 BPAC05 SGAPPABO
updating label 4E05 BPAC06
updating sgname 4E05 BPAC06 SGAPPABO
updating label 4E06 BPAC17
updating sgname 4E06 BPAC17 SGAPPABO
updating label 4E07 BPAC18
updating sgname 4E07 BPAC18 SGAPPABO
updating label 4E08 BPAC07
updating sgname 4E08 BPAC07 SGAPPABO
updating label 4E09 BPAC08
updating sgname 4E09 BPAC08 SGAPPABO
updating label 4E0A BPAC09
updating sgname 4E0A BPAC09 SGAPPABO
updating label 4E0B BPAC10
updating sgname 4E0B BPAC10 SGAPPABO
updating label 4E0C BPAC11
updating sgname 4E0C BPAC11 SGAPPABO
updating label 4E0D BPAC12
updating sgname 4E0D BPAC12 SGAPPABO
updating label 4E0E BPAC13
updating sgname 4E0E BPAC13 SGAPPABO
updating label 4E0F BPAC14
updating sgname 4E0F BPAC14 SGAPPABO
updating label 4E10 BPAC15
updating sgname 4E10 BPAC15 SGAPPABO
updating label 4E11 BPAC16
updating sgname 4E11 BPAC16 SGAPPABO
updating label 4E12 BPAC56
updating sgname 4E12 BPAC56 SGAPPLAB
updating label 4E13 BPAC57
updating sgname 4E13 BPAC57 SGAPPLAB
updating label 4E14 BPAC58
updating sgname 4E14 BPAC58 SGAPPLAB
updating label 4E15 BPAC59
updating sgname 4E15 BPAC59 SGAPPLAB
updating label 4E16 BPAC60
updating sgname 4E16 BPAC60 SGAPPLAB
updating label 4E17 BPAC61
updating sgname 4E17 BPAC61 SGAPPLAB
updating label 4E18 BPAC62
updating sgname 4E18 BPAC62 SGAPPLAB
updating label 4E19 BPAC63
updating sgname 4E19 BPAC63 SGAPPLAB
updating label 4E1A BPAC64
updating sgname 4E1A BPAC64 SGAPPLAB
updating label 4E1B BPAC19
updating sgname 4E1B BPAC19 SGAPPLAB
updating label 4E1C BPAC20
updating sgname 4E1C BPAC20 SGAPPLAB
updating label 4E1D BPAC21
updating sgname 4E1D BPAC21 SGAPPLAB
updating label 4E1E BPAC22
updating sgname 4E1E BPAC22 SGAPPLAB
updating label 4E1F BPAC33
updating sgname 4E1F BPAC33 SGAPPLAB
updating label 4E20 BPAC34
updating sgname 4E20 BPAC34 SGAPPLAB
updating label 4E21 BPAC35
updating sgname 4E21 BPAC35 SGAPPLAB
updating label 4E22 BPAC36
updating sgname 4E22 BPAC36 SGAPPLAB
updating label 4E23 BPAC37
updating sgname 4E23 BPAC37 SGAPPLAB
updating label 4E24 BPAC38
updating sgname 4E24 BPAC38 SGAPPLAB
updating label 4E25 BPAC23
updating sgname 4E25 BPAC23 SGAPPLAB
updating label 4E26 BPAC24
updating sgname 4E26 BPAC24 SGAPPLAB
updating label 4E27 BPAC25
updating sgname 4E27 BPAC25 SGAPPLAB
updating label 4E28 BPAC26
updating sgname 4E28 BPAC26 SGAPPLAB
updating label 4E29 BPAC27
updating sgname 4E29 BPAC27 SGAPPLAB
updating label 4E2A BPAC28
updating sgname 4E2A BPAC28 SGAPPLAB
updating label 4E2B BPAC29
updating sgname 4E2B BPAC29 SGAPPLAB
updating label 4E2C BPAC30
updating sgname 4E2C BPAC30 SGAPPLAB
updating label 4E2D BPAC31
updating sgname 4E2D BPAC31 SGAPPLAB
updating label 4E2E BPAC32
updating sgname 4E2E BPAC32 SGAPPLAB
updating label 4E2F BPAC49
updating sgname 4E2F BPAC49 SGAPPLAB
updating label 4E30 BPAC50
updating sgname 4E30 BPAC50 SGAPPLAB
updating label 4E31 BPAC51
updating sgname 4E31 BPAC51 SGAPPLAB
updating label 4E32 BPAC52
updating sgname 4E32 BPAC52 SGAPPLAB
updating label 4E33 BPAC53
updating sgname 4E33 BPAC53 SGAPPLAB
updating label 4E34 BPAC54
updating sgname 4E34 BPAC54 SGAPPLAB
updating label 4E35 BPAC39
updating sgname 4E35 BPAC39 SGAPPLAB
updating label 4E36 BPAC40
updating sgname 4E36 BPAC40 SGAPPLAB
updating label 4E37 BPAC41
updating sgname 4E37 BPAC41 SGAPPLAB
updating label 4E38 BPAC42
updating sgname 4E38 BPAC42 SGAPPLAB
updating label 4E39 BPAC43
updating sgname 4E39 BPAC43 SGAPPLAB
updating label 4E3A BPAC44
updating sgname 4E3A BPAC44 SGAPPLAB
updating label 4E3B BPAC45
updating sgname 4E3B BPAC45 SGAPPLAB
updating label 4E3C BPAC46
updating sgname 4E3C BPAC46 SGAPPLAB
updating label 4E3D BPAC47
updating sgname 4E3D BPAC47 SGAPPLAB
updating label 4E3E BPAC48
updating sgname 4E3E BPAC48 SGAPPLAB
updating label 4E3F BPAC65
updating sgname 4E3F BPAC65 SGAPPLAB
updating label 4E40 BPAC66
updating sgname 4E40 BPAC66 SGAPPLAB
updating label 4E41 BPAC55
updating sgname 4E41 BPAC55 SGAPPLAB
updating label 4E42 BPAE50
updating sgname 4E42 BPAE50 SGAPPLAB
updating label 4E43 BPAE51
updating sgname 4E43 BPAE51 SGAPPLAB
updating label 4E44 BPAE52
updating sgname 4E44 BPAE52 SGAPPLAB
updating label 4E45 BPAE53
updating sgname 4E45 BPAE53 SGAPPLAB
updating label 4E46 BPAE54
updating sgname 4E46 BPAE54 SGAPPLAB
updating label 4E47 BPAE47
updating sgname 4E47 BPAE47 SGAPPLAB
updating label 4E48 BPAE48
updating sgname 4E48 BPAE48 SGAPPLAB
updating label 4E49 BPAE65
updating sgname 4E49 BPAE65 SGAPPLAB
updating label 4E4A BPAE66
updating sgname 4E4A BPAE66 SGAPPLAB
updating label 4E4B BPAE55
updating sgname 4E4B BPAE55 SGAPPLAB
updating label 4E4C BPAE56
updating sgname 4E4C BPAE56 SGAPPLAB
updating label 4E4D BPAE57
updating sgname 4E4D BPAE57 SGAPPLAB
updating label 4E4E BPAE58
updating sgname 4E4E BPAE58 SGAPPLAB
updating label 4E4F BPAE59
updating sgname 4E4F BPAE59 SGAPPLAB
updating label 4E50 BPAE60
updating sgname 4E50 BPAE60 SGAPPLAB
updating label 4E51 BPAE61
updating sgname 4E51 BPAE61 SGAPPLAB
updating label 4E52 BPAE31
updating sgname 4E52 BPAE31 SGAPPLAB
updating label 4E53 BPAE32
updating sgname 4E53 BPAE32 SGAPPLAB
updating label 4E54 BPAE49
updating sgname 4E54 BPAE49 SGAPPLAB
updating label 4E55 BPAE27
updating sgname 4E55 BPAE27 SGAPPLAB
updating label 4E56 BPAE28
updating sgname 4E56 BPAE28 SGAPPLAB
updating label 4E57 BPAE29
updating sgname 4E57 BPAE29 SGAPPLAB
updating label 4E58 BPAE30
updating sgname 4E58 BPAE30 SGAPPLAB
updating label 4E59 BPAJ07
updating sgname 4E59 BPAJ07 SGAPPABO
updating label 4E5A BPAJ08
updating sgname 4E5A BPAJ08 SGAPPABO
updating label 4E5B BPAJ09
updating sgname 4E5B BPAJ09 SGAPPABO
updating label 4E5C BPAJ10
updating sgname 4E5C BPAJ10 SGAPPABO
updating label 4E5D BPAJ11
updating sgname 4E5D BPAJ11 SGAPPABO
updating label 4E5E BPAJ12
updating sgname 4E5E BPAJ12 SGAPPABO
updating label 4E5F BPAJ13
updating sgname 4E5F BPAJ13 SGAPPABO
updating label 4E60 BPAJ14
updating sgname 4E60 BPAJ14 SGAPPABO
updating label 4E61 BPAJ15
updating sgname 4E61 BPAJ15 SGAPPABO
updating label 4E62 BPAJ16
updating sgname 4E62 BPAJ16 SGAPPABO
updating label 4E63 BXAA07
updating sgname 4E63 BXAA07 SGAPPDCS
updating label 4E64 BXAA08
updating sgname 4E64 BXAA08 SGAPPDCS
updating label 4E65 BXAA17
updating sgname 4E65 BXAA17 SGAPPDCS
updating label 4E66 BXAA18
updating sgname 4E66 BXAA18 SGAPPDCS
updating label 4E67 BXAA19
updating sgname 4E67 BXAA19 SGAPPDCS
updating label 4E68 BXAA20
updating sgname 4E68 BXAA20 SGAPPDCS
updating label 4E69 BPBM31
updating sgname 4E69 BPBM31 SGAPPAML
updating label 4E6A BPBM32
updating sgname 4E6A BPBM32 SGAPPAML
updating label 4E6B BPBM33
updating sgname 4E6B BPBM33 SGAPPAML
updating label 4E6C BPBM34
updating sgname 4E6C BPBM34 SGAPPAML
updating label 4E6D BPBM35
updating sgname 4E6D BPBM35 SGAPPAML
updating label 4E6E BPBM36
updating sgname 4E6E BPBM36 SGAPPAML
updating label 4E6F BPBM37
updating sgname 4E6F BPBM37 SGAPPAML
updating label 4E70 BPBM38
updating sgname 4E70 BPBM38 SGAPPAML
updating label 4E71 BPBM39
updating sgname 4E71 BPBM39 SGAPPAML
updating label 4E72 BPBM40
updating sgname 4E72 BPBM40 SGAPPAML
updating label 4E73 BPBM41
updating sgname 4E73 BPBM41 SGAPPAML
updating label 4E74 BPBM42
updating sgname 4E74 BPBM42 SGAPPAML
updating label 4E75 BPBM43
updating sgname 4E75 BPBM43 SGAPPAML
updating label 4E76 BPBM44
updating sgname 4E76 BPBM44 SGAPPAML
updating label 4E77 BPBM45
updating sgname 4E77 BPBM45 SGAPPAML
updating label 4E78 BXAA29
updating sgname 4E78 BXAA29 SGAPPDCS
updating label 4E79 BXAA30
updating sgname 4E79 BXAA30 SGAPPDCS
updating label 4E7A BXAA39
updating sgname 4E7A BXAA39 SGAPPDCS
updating label 4E7B BXAA40
updating sgname 4E7B BXAA40 SGAPPDCS
updating label 4E7C BXAA41
updating sgname 4E7C BXAA41 SGAPPDCS
updating label 4E7D BXAA47
updating sgname 4E7D BXAA47 SGAPPDCS
updating label 4E7E BJ4E7E
updating sgname 4E7E BJ4E7E SGAPPAML
updating label 4E7F BJ4E7F
updating sgname 4E7F BJ4E7F SGAPPAML
updating label 4F00 BPAA19
updating sgname 4F00 BPAA19 SGAPPLAB
updating label 4F01 BPAA20
updating sgname 4F01 BPAA20 SGAPPLAB
updating label 4F02 BPAA21
updating sgname 4F02 BPAA21 SGAPPLAB
updating label 4F03 BPAA22
updating sgname 4F03 BPAA22 SGAPPLAB
updating label 4F04 BPAA33
updating sgname 4F04 BPAA33 SGAPPLAB
updating label 4F05 BPAA34
updating sgname 4F05 BPAA34 SGAPPLAB
updating label 4F06 BPAA35
updating sgname 4F06 BPAA35 SGAPPLAB
updating label 4F07 BPAA36
updating sgname 4F07 BPAA36 SGAPPLAB
updating label 4F08 BPAA37
updating sgname 4F08 BPAA37 SGAPPLAB
updating label 4F09 BPAA38
updating sgname 4F09 BPAA38 SGAPPLAB
updating label 4F0A BPAA23
updating sgname 4F0A BPAA23 SGAPPLAB
updating label 4F0B BPAA24
updating sgname 4F0B BPAA24 SGAPPLAB
updating label 4F0C BPAA25
updating sgname 4F0C BPAA25 SGAPPLAB
updating label 4F0D BPAA26
updating sgname 4F0D BPAA26 SGAPPLAB
updating label 4F0E BPAA27
updating sgname 4F0E BPAA27 SGAPPLAB
updating label 4F0F BPAA28
updating sgname 4F0F BPAA28 SGAPPLAB
updating label 4F10 BPAA29
updating sgname 4F10 BPAA29 SGAPPLAB
updating label 4F11 BPAA30
updating sgname 4F11 BPAA30 SGAPPLAB
updating label 4F12 BPAA31
updating sgname 4F12 BPAA31 SGAPPLAB
updating label 4F13 BPAA32
updating sgname 4F13 BPAA32 SGAPPLAB
updating label 4F14 BPAA49
updating sgname 4F14 BPAA49 SGAPPLAB
updating label 4F15 BPAA50
updating sgname 4F15 BPAA50 SGAPPLAB
updating label 4F16 BPAA51
updating sgname 4F16 BPAA51 SGAPPLAB
updating label 4F17 BPAA52
updating sgname 4F17 BPAA52 SGAPPLAB
updating label 4F18 BPAA53
updating sgname 4F18 BPAA53 SGAPPLAB
updating label 4F19 BPAA54
updating sgname 4F19 BPAA54 SGAPPLAB
updating label 4F1A BPAA39
updating sgname 4F1A BPAA39 SGAPPLAB
updating label 4F1B BPAA40
updating sgname 4F1B BPAA40 SGAPPLAB
updating label 4F1C BPAA41
updating sgname 4F1C BPAA41 SGAPPLAB
updating label 4F1D BPAA42
updating sgname 4F1D BPAA42 SGAPPLAB
updating label 4F1E BPAA43
updating sgname 4F1E BPAA43 SGAPPLAB
updating label 4F1F BPAA44
updating sgname 4F1F BPAA44 SGAPPLAB
updating label 4F20 BPAA45
updating sgname 4F20 BPAA45 SGAPPLAB
updating label 4F21 BPAA46
updating sgname 4F21 BPAA46 SGAPPLAB
updating label 4F22 BPAA47
updating sgname 4F22 BPAA47 SGAPPLAB
updating label 4F23 BPAA48
updating sgname 4F23 BPAA48 SGAPPLAB
updating label 4F24 BPAA65
updating sgname 4F24 BPAA65 SGAPPLAB
updating label 4F25 BPAA66
updating sgname 4F25 BPAA66 SGAPPLAB
updating label 4F26 BPAF34
updating sgname 4F26 BPAF34 SGAPPLAB
updating label 4F27 BPAF35
updating sgname 4F27 BPAF35 SGAPPLAB
updating label 4F28 BPAA03
updating sgname 4F28 BPAA03 SGAPPABO
updating label 4F29 BPAA04
updating sgname 4F29 BPAA04 SGAPPABO
updating label 4F2A BPAA05
updating sgname 4F2A BPAA05 SGAPPABO
updating label 4F2B BPAA06
updating sgname 4F2B BPAA06 SGAPPABO
updating label 4F2C BPAA17
updating sgname 4F2C BPAA17 SGAPPABO
updating label 4F2D BPAA18
updating sgname 4F2D BPAA18 SGAPPABO
updating label 4F2E BPAA07
updating sgname 4F2E BPAA07 SGAPPABO
updating label 4F2F BPAA08
updating sgname 4F2F BPAA08 SGAPPABO
updating label 4F30 BPAA09
updating sgname 4F30 BPAA09 SGAPPABO
updating label 4F31 BPAA10
updating sgname 4F31 BPAA10 SGAPPABO
updating label 4F32 BPAA11
updating sgname 4F32 BPAA11 SGAPPABO
updating label 4F33 BPAE85
updating sgname 4F33 BPAE85 SGAPPLAB
updating label 4F34 BPAE86
updating sgname 4F34 BPAE86 SGAPPLAB
updating label 4F35 BPAE87
updating sgname 4F35 BPAE87 SGAPPLAB
updating label 4F36 BPAE88
updating sgname 4F36 BPAE88 SGAPPLAB
updating label 4F37 BPAE99
updating sgname 4F37 BPAE99 SGAPPLAB
updating label 4F38 BPAF04
updating sgname 4F38 BPAF04 SGAPPLAB
updating label 4F39 BPAF05
updating sgname 4F39 BPAF05 SGAPPLAB
updating label 4F3A BPAE89
updating sgname 4F3A BPAE89 SGAPPLAB
updating label 4F3B BPAE90
updating sgname 4F3B BPAE90 SGAPPLAB
updating label 4F3C BPAE91
updating sgname 4F3C BPAE91 SGAPPLAB
updating label 4F3D BPAE92
updating sgname 4F3D BPAE92 SGAPPLAB
updating label 4F3E BPAE93
updating sgname 4F3E BPAE93 SGAPPLAB
updating label 4F3F BPAE94
updating sgname 4F3F BPAE94 SGAPPLAB
updating label 4F40 BPAE95
updating sgname 4F40 BPAE95 SGAPPLAB
updating label 4F41 BPAE96
updating sgname 4F41 BPAE96 SGAPPLAB
updating label 4F42 BPAE97
updating sgname 4F42 BPAE97 SGAPPLAB
updating label 4F43 BPAE98
updating sgname 4F43 BPAE98 SGAPPLAB
updating label 4F44 BPAF16
updating sgname 4F44 BPAF16 SGAPPLAB
updating label 4F45 BPAF17
updating sgname 4F45 BPAF17 SGAPPLAB
updating label 4F46 BPAF18
updating sgname 4F46 BPAF18 SGAPPLAB
updating label 4F47 BPAF19
updating sgname 4F47 BPAF19 SGAPPLAB
updating label 4F48 BPAF20
updating sgname 4F48 BPAF20 SGAPPLAB
updating label 4F49 BPAF21
updating sgname 4F49 BPAF21 SGAPPLAB
updating label 4F4A BPAF06
updating sgname 4F4A BPAF06 SGAPPLAB
updating label 4F4B BPAF07
updating sgname 4F4B BPAF07 SGAPPLAB
updating label 4F4C BPAF08
updating sgname 4F4C BPAF08 SGAPPLAB
updating label 4F4D BPAF09
updating sgname 4F4D BPAF09 SGAPPLAB
updating label 4F4E BPAF10
updating sgname 4F4E BPAF10 SGAPPLAB
updating label 4F4F BPAF11
updating sgname 4F4F BPAF11 SGAPPLAB
updating label 4F50 BPAF12
updating sgname 4F50 BPAF12 SGAPPLAB
updating label 4F51 BPAF13
updating sgname 4F51 BPAF13 SGAPPLAB
updating label 4F52 BPAF14
updating sgname 4F52 BPAF14 SGAPPLAB
updating label 4F53 BPAF15
updating sgname 4F53 BPAF15 SGAPPLAB
updating label 4F54 BPAF32
updating sgname 4F54 BPAF32 SGAPPLAB
updating label 4F55 BPAF33
updating sgname 4F55 BPAF33 SGAPPLAB
updating label 4F56 BPAF22
updating sgname 4F56 BPAF22 SGAPPLAB
updating label 4F57 BPAF23
updating sgname 4F57 BPAF23 SGAPPLAB
updating label 4F58 BPAF24
updating sgname 4F58 BPAF24 SGAPPLAB
updating label 4F59 BPAF25
updating sgname 4F59 BPAF25 SGAPPLAB
updating label 4F5A BPAF26
updating sgname 4F5A BPAF26 SGAPPLAB
updating label 4F5B BPAH44
updating sgname 4F5B BPAH44 SGAPPSHD
updating label 4F5C BPACT4
updating label 4F5D BPAFT1
updating sgname 4F5D BPAFT1 SGAPPFTE
updating label 4F5E BPACC2
updating label 4F5F BPAG44
updating sgname 4F5F BPAG44 SGAPPFTE
updating label 4F60 BPAFT2
updating sgname 4F60 BPAFT2 SGAPPFTE
updating label 4F61 BJ4F61
updating sgname 4F61 BJ4F61 SGAPPABO
updating label 4F62 BJ4F62
updating sgname 4F62 BJ4F62 SGAPPABO
updating label 4F63 BXAA15
updating sgname 4F63 BXAA15 SGAPPDCS
updating label 4F64 BXAA16
updating sgname 4F64 BXAA16 SGAPPDCS
updating label 4F65 BXAA21
updating sgname 4F65 BXAA21 SGAPPDCS
updating label 4F66 BXAA22
updating sgname 4F66 BXAA22 SGAPPDCS
updating label 4F67 BXAA23
updating sgname 4F67 BXAA23 SGAPPDCS
updating label 4F68 BXAA24
updating sgname 4F68 BXAA24 SGAPPDCS
updating label 4F69 BPBM46
updating sgname 4F69 BPBM46 SGAPPAML
updating label 4F6A BPBM47
updating sgname 4F6A BPBM47 SGAPPAML
updating label 4F6B BPBM48
updating sgname 4F6B BPBM48 SGAPPAML
updating label 4F6C BPBM49
updating sgname 4F6C BPBM49 SGAPPAML
updating label 4F6D BPBM50
updating sgname 4F6D BPBM50 SGAPPAML
updating label 4F6E BPBM51
updating sgname 4F6E BPBM51 SGAPPAML
updating label 4F6F BPBM52
updating sgname 4F6F BPBM52 SGAPPAML
updating label 4F70 BPBM53
updating sgname 4F70 BPBM53 SGAPPAML
updating label 4F71 BPBM54
updating sgname 4F71 BPBM54 SGAPPAML
updating label 4F72 BPBM55
updating sgname 4F72 BPBM55 SGAPPAML
updating label 4F73 BPBM56
updating sgname 4F73 BPBM56 SGAPPAML
updating label 4F74 BPBM57
updating sgname 4F74 BPBM57 SGAPPAML
updating label 4F75 BPBM58
updating sgname 4F75 BPBM58 SGAPPAML
updating label 4F76 BPBM59
updating sgname 4F76 BPBM59 SGAPPAML
updating label 4F77 BPBM60
updating sgname 4F77 BPBM60 SGAPPAML
updating label 4F78 BXAA31
updating sgname 4F78 BXAA31 SGAPPDCS
updating label 4F79 BXAA32
updating sgname 4F79 BXAA32 SGAPPDCS
updating label 4F7A BXAA42
updating sgname 4F7A BXAA42 SGAPPDCS
updating label 4F7B BXAA43
updating sgname 4F7B BXAA43 SGAPPDCS
updating label 4F7C BXAA44
updating sgname 4F7C BXAA44 SGAPPDCS
updating label 4F7D BXAA48
updating sgname 4F7D BXAA48 SGAPPDCS
updating label 4F7E BJ4F7E
updating sgname 4F7E BJ4F7E SGAPPAML
updating label 4F7F BJ4F7F
updating sgname 4F7F BJ4F7F SGAPPAML
updating label 5000 BPAF36
updating sgname 5000 BPAF36 SGAPPLAB
updating label 5001 BPAA55
updating sgname 5001 BPAA55 SGAPPLAB
updating label 5002 BPAA56
updating sgname 5002 BPAA56 SGAPPLAB
updating label 5003 BPAA57
updating sgname 5003 BPAA57 SGAPPLAB
updating label 5004 BPAA58
updating sgname 5004 BPAA58 SGAPPLAB
updating label 5005 BPAA59
updating sgname 5005 BPAA59 SGAPPLAB
updating label 5006 BPAA60
updating sgname 5006 BPAA60 SGAPPLAB
updating label 5007 BPAA61
updating sgname 5007 BPAA61 SGAPPLAB
updating label 5008 BPAA62
updating sgname 5008 BPAA62 SGAPPLAB
updating label 5009 BPAA63
updating sgname 5009 BPAA63 SGAPPLAB
updating label 500A BPAA64
[...]
updating label 7C5E BJ7C5E
updating sgname 7C5E BJ7C5E SGAPPABP
updating label 7C5F BJ7C5F
updating sgname 7C5F BJ7C5F SGAPPABP
updating label 7C60 BJ7C60
updating sgname 7C60 BJ7C60 SGAPPABP
updating label 7C61 BJ7C61
updating sgname 7C61 BJ7C61 SGAPPABP
updating label 7C62 BJ7C62
updating sgname 7C62 BJ7C62 SGAPPABP
updating label 7C63 BJ7C63
updating sgname 7C63 BJ7C63 SGAPPABP
updating label 7C64 BJ7C64
updating sgname 7C64 BJ7C64 SGAPPABP
updating label 7C65 BJ7C65
updating sgname 7C65 BJ7C65 SGAPPABP
updating label 7C66 BJ7C66
updating sgname 7C66 BJ7C66 SGAPPABP
updating label 7C67 BJ7C67
updating sgname 7C67 BJ7C67 SGAPPABP
updating label 7C68 BJ7C68
updating sgname 7C68 BJ7C68 SGAPPABP
updating label 7C69 BJ7C69
updating sgname 7C69 BJ7C69 SGAPPABP
updating label 7C6A BJ7C6A
updating sgname 7C6A BJ7C6A SGAPPABP
updating label 7C6B BJ7C6B
updating sgname 7C6B BJ7C6B SGAPPABP
updating label 7C6C BJ7C6C
updating sgname 7C6C BJ7C6C SGAPPABP
updating label 7C6D BJ7C6D
updating sgname 7C6D BJ7C6D SGAPPABP
updating label 7C6E BJ7C6E
updating sgname 7C6E BJ7C6E SGAPPABP
updating label 7C6F BJ7C6F
updating sgname 7C6F BJ7C6F SGAPPABP
updating label 7C70 BJ7C70
updating sgname 7C70 BJ7C70 SGAPPABP
updating label 7C71 BJ7C71
updating sgname 7C71 BJ7C71 SGAPPABP
updating label 7C72 BJ7C72
updating sgname 7C72 BJ7C72 SGAPPABP
updating label 7C73 BJ7C73
updating sgname 7C73 BJ7C73 SGAPPABP
updating label 7C74 BJ7C74
updating sgname 7C74 BJ7C74 SGAPPABP
updating label 7C75 BJ7C75
updating sgname 7C75 BJ7C75 SGAPPABP
updating label 7C76 BJ7C76
updating sgname 7C76 BJ7C76 SGAPPABP
updating label 7C77 BJ7C77
updating sgname 7C77 BJ7C77 SGAPPABP
updating label 7C78 BJ7C78
updating sgname 7C78 BJ7C78 SGAPPABP
updating label 7C79 BJ7C79
updating sgname 7C79 BJ7C79 SGAPPABP
updating label 7C7A BJ7C7A
updating sgname 7C7A BJ7C7A SGAPPABP
updating label 7C7B BJ7C7B
updating sgname 7C7B BJ7C7B SGAPPABP
updating label 7C7C BJ7C7C
updating sgname 7C7C BJ7C7C SGAPPABP
updating label 7C7D BJ7C7D
updating sgname 7C7D BJ7C7D SGAPPABP
updating label 7C7E BJ7C7E
updating sgname 7C7E BJ7C7E SGAPPABP
updating label 7C7F BJ7C7F
updating sgname 7C7F BJ7C7F SGAPPABP
updating label 7D00 BJ7D00
updating sgname 7D00 BJ7D00 SGAPPABP
updating label 7D01 BJ7D01
updating sgname 7D01 BJ7D01 SGAPPABP
updating label 7D02 BJ7D02
updating sgname 7D02 BJ7D02 SGAPPABP
updating label 7D03 BJ7D03
updating sgname 7D03 BJ7D03 SGAPPABP
updating label 7D04 BJ7D04
updating sgname 7D04 BJ7D04 SGAPPABP
updating label 7D05 BJ7D05
updating sgname 7D05 BJ7D05 SGAPPABP
updating label 7D06 BJ7D06
updating sgname 7D06 BJ7D06 SGAPPABP
updating label 7D07 BJ7D07
updating sgname 7D07 BJ7D07 SGAPPABP
updating label 7D08 BJ7D08
updating sgname 7D08 BJ7D08 SGAPPABP
updating label 7D09 BJ7D09
updating sgname 7D09 BJ7D09 SGAPPABP
updating label 7D0A BJ7D0A
updating sgname 7D0A BJ7D0A SGAPPABP
updating label 7D0B BJ7D0B
updating sgname 7D0B BJ7D0B SGAPPABP
updating label 7D0C BJ7D0C
updating sgname 7D0C BJ7D0C SGAPPABP
updating label 7D0D BJ7D0D
updating sgname 7D0D BJ7D0D SGAPPABP
updating label 7D0E BJ7D0E
updating sgname 7D0E BJ7D0E SGAPPABP
updating label 7D0F BJ7D0F
updating sgname 7D0F BJ7D0F SGAPPABP
updating label 7D10 BJ7D10
updating sgname 7D10 BJ7D10 SGAPPABP
updating label 7D11 BJ7D11
updating sgname 7D11 BJ7D11 SGAPPABP
updating label 7D12 BJ7D12
updating sgname 7D12 BJ7D12 SGAPPABP
updating label 7D13 BJ7D13
updating sgname 7D13 BJ7D13 SGAPPABP
updating label 7D14 BJ7D14
updating sgname 7D14 BJ7D14 SGAPPABP
updating label 7D15 BJ7D15
updating sgname 7D15 BJ7D15 SGAPPABP
updating label 7D16 BJ7D16
updating sgname 7D16 BJ7D16 SGAPPABP
updating label 7D17 BJ7D17
updating sgname 7D17 BJ7D17 SGAPPABP
updating label 7D18 BJ7D18
updating sgname 7D18 BJ7D18 SGAPPABP
updating label 7D19 BJ7D19
updating sgname 7D19 BJ7D19 SGAPPABP
updating label 7D1A BJ7D1A
updating sgname 7D1A BJ7D1A SGAPPABP
updating label 7D1B BJ7D1B
updating sgname 7D1B BJ7D1B SGAPPABP
updating label 7D1C BJ7D1C
updating sgname 7D1C BJ7D1C SGAPPABP
updating label 7D1D BJ7D1D
updating sgname 7D1D BJ7D1D SGAPPABP
updating label 7D1E BJ7D1E
updating sgname 7D1E BJ7D1E SGAPPABP
updating label 7D1F BJ7D1F
updating sgname 7D1F BJ7D1F SGAPPABP
updating label 7D20 BJ7D20
updating sgname 7D20 BJ7D20 SGAPPABP
updating label 7D21 BJ7D21
updating sgname 7D21 BJ7D21 SGAPPABP
updating label 7D22 BJ7D22
updating sgname 7D22 BJ7D22 SGAPPABP
updating label 7D23 BJ7D23
updating sgname 7D23 BJ7D23 SGAPPABP
updating label 7D24 BJ7D24
updating sgname 7D24 BJ7D24 SGAPPABP
updating label 7D25 BJ7D25
updating sgname 7D25 BJ7D25 SGAPPABP
updating label 7D26 BJ7D26
updating sgname 7D26 BJ7D26 SGAPPABP
updating label 7D27 BJ7D27
updating sgname 7D27 BJ7D27 SGAPPABP
updating label 7D28 BJ7D28
updating sgname 7D28 BJ7D28 SGAPPABP
updating label 7D29 BJ7D29
updating sgname 7D29 BJ7D29 SGAPPABP
updating label 7D2A BJ7D2A
updating sgname 7D2A BJ7D2A SGAPPABP
updating label 7D2B BJ7D2B
updating sgname 7D2B BJ7D2B SGAPPABP
updating label 7D2C BJ7D2C
updating sgname 7D2C BJ7D2C SGAPPABP
updating label 7D2D BJ7D2D
updating sgname 7D2D BJ7D2D SGAPPABP
updating label 7D2E BJ7D2E
updating sgname 7D2E BJ7D2E SGAPPABP
updating label 7D2F BJ7D2F
updating sgname 7D2F BJ7D2F SGAPPABP
updating label 7D30 BJ7D30
updating sgname 7D30 BJ7D30 SGAPPABP
updating label 7D31 BJ7D31
updating sgname 7D31 BJ7D31 SGAPPABP
updating label 7D32 BJ7D32
updating sgname 7D32 BJ7D32 SGAPPABP
updating label 7D33 BJ7D33
updating sgname 7D33 BJ7D33 SGAPPABP
updating label 7D34 BJ7D34
updating sgname 7D34 BJ7D34 SGAPPABP
updating label 7D35 BJ7D35
updating sgname 7D35 BJ7D35 SGAPPABP
updating label 7D36 BJ7D36
updating sgname 7D36 BJ7D36 SGAPPABP
updating label 7D37 BJ7D37
updating sgname 7D37 BJ7D37 SGAPPABP
updating label 7D38 BJ7D38
updating sgname 7D38 BJ7D38 SGAPPABP
updating label 7D39 BJ7D39
updating sgname 7D39 BJ7D39 SGAPPABP
updating label 7D3A BJ7D3A
updating sgname 7D3A BJ7D3A SGAPPABP
updating label 7D3B BJ7D3B
updating sgname 7D3B BJ7D3B SGAPPABP
updating label 7D3C BJ7D3C
updating sgname 7D3C BJ7D3C SGAPPABP
updating label 7D3D BJ7D3D
updating sgname 7D3D BJ7D3D SGAPPABP
updating label 7D3E BJ7D3E
updating sgname 7D3E BJ7D3E SGAPPABP
updating label 7D3F BJ7D3F
updating sgname 7D3F BJ7D3F SGAPPABP
updating label 7D40 BJ7D40
updating sgname 7D40 BJ7D40 SGAPPABP
updating label 7D41 BJ7D41
updating sgname 7D41 BJ7D41 SGAPPABP
updating label 7D42 BJ7D42
updating sgname 7D42 BJ7D42 SGAPPABP
updating label 7D43 BJ7D43
updating sgname 7D43 BJ7D43 SGAPPABP
updating label 7D44 BJ7D44
updating sgname 7D44 BJ7D44 SGAPPABP
updating label 7D45 BJ7D45
updating sgname 7D45 BJ7D45 SGAPPABP
updating label 7D46 BJ7D46
updating sgname 7D46 BJ7D46 SGAPPABP
updating label 7D47 BJ7D47
updating sgname 7D47 BJ7D47 SGAPPABP
updating label 7D48 BJ7D48
updating sgname 7D48 BJ7D48 SGAPPABP
updating label 7D49 BJ7D49
updating sgname 7D49 BJ7D49 SGAPPABP
updating label 7D4A BJ7D4A
updating sgname 7D4A BJ7D4A SGAPPABP
updating label 7D4B BJ7D4B
updating sgname 7D4B BJ7D4B SGAPPABP
updating label 7D4C BJ7D4C
updating sgname 7D4C BJ7D4C SGAPPABP
updating label 7D4D BJ7D4D
updating sgname 7D4D BJ7D4D SGAPPABP
updating label 7D4E BJ7D4E
updating sgname 7D4E BJ7D4E SGAPPABP
updating label 7D4F BJ7D4F
updating sgname 7D4F BJ7D4F SGAPPABP
updating label 7D50 BJ7D50
updating sgname 7D50 BJ7D50 SGAPPABP
updating label 7D51 BJ7D51
updating sgname 7D51 BJ7D51 SGAPPABP
updating label 7D52 BJ7D52
updating sgname 7D52 BJ7D52 SGAPPABP
updating label 7D53 BJ7D53
updating sgname 7D53 BJ7D53 SGAPPABP
updating label 7D54 BJ7D54
updating sgname 7D54 BJ7D54 SGAPPABP
updating label 7D55 BJ7D55
updating sgname 7D55 BJ7D55 SGAPPABP
updating label 7D56 BJ7D56
updating sgname 7D56 BJ7D56 SGAPPABP
updating label 7D57 BJ7D57
updating sgname 7D57 BJ7D57 SGAPPABP
updating label 7D58 BJ7D58
updating sgname 7D58 BJ7D58 SGAPPABP
updating label 7D59 BJ7D59
updating sgname 7D59 BJ7D59 SGAPPABP
updating label 7D5A BJ7D5A
updating sgname 7D5A BJ7D5A SGAPPABP
updating label 7D5B BJ7D5B
updating sgname 7D5B BJ7D5B SGAPPABP
updating label 7D5C BJ7D5C
updating sgname 7D5C BJ7D5C SGAPPABP
updating label 7D5D BJ7D5D
updating sgname 7D5D BJ7D5D SGAPPABP
updating label 7D5E BJ7D5E
updating sgname 7D5E BJ7D5E SGAPPABP
updating label 7D5F BJ7D5F
updating sgname 7D5F BJ7D5F SGAPPABP
updating label 7D60 BJ7D60
updating sgname 7D60 BJ7D60 SGAPPABP
updating label 7D61 BJ7D61
updating sgname 7D61 BJ7D61 SGAPPABP
updating label 7D62 BJ7D62
updating sgname 7D62 BJ7D62 SGAPPABP
updating label 7D63 BJ7D63
updating sgname 7D63 BJ7D63 SGAPPABP
updating label 7D64 BJ7D64
updating sgname 7D64 BJ7D64 SGAPPABP
updating label 7D65 BJ7D65
updating sgname 7D65 BJ7D65 SGAPPABP
updating label 7D66 BJ7D66
updating sgname 7D66 BJ7D66 SGAPPABP
updating label 7D67 BJ7D67
updating sgname 7D67 BJ7D67 SGAPPABP
updating label 7D68 BJ7D68
updating sgname 7D68 BJ7D68 SGAPPABP
updating label 7D69 BJ7D69
updating sgname 7D69 BJ7D69 SGAPPABP
updating label 7D6A BJ7D6A
updating sgname 7D6A BJ7D6A SGAPPABP
updating label 7D6B BJ7D6B
updating sgname 7D6B BJ7D6B SGAPPABP
updating label 7D6C BJ7D6C
updating sgname 7D6C BJ7D6C SGAPPABP
updating label 7D6D BJ7D6D
updating sgname 7D6D BJ7D6D SGAPPABP
updating label 7D6E BJ7D6E
updating sgname 7D6E BJ7D6E SGAPPABP
updating label 7D6F BJ7D6F
updating sgname 7D6F BJ7D6F SGAPPABP
updating label 7D70 BJ7D70
updating sgname 7D70 BJ7D70 SGAPPABP
updating label 7D71 BJ7D71
updating sgname 7D71 BJ7D71 SGAPPABP
updating label 7D72 BJ7D72
updating sgname 7D72 BJ7D72 SGAPPABP
updating label 7D73 BJ7D73
updating sgname 7D73 BJ7D73 SGAPPABP
updating label 7D74 BJ7D74
updating sgname 7D74 BJ7D74 SGAPPABP
updating label 7D75 BJ7D75
updating sgname 7D75 BJ7D75 SGAPPABP
updating label 7D76 BJ7D76
updating sgname 7D76 BJ7D76 SGAPPABP
updating label 7D77 BJ7D77
updating sgname 7D77 BJ7D77 SGAPPABP
updating label 7D78 BJ7D78
updating sgname 7D78 BJ7D78 SGAPPABP
updating label 7D79 BJ7D79
updating sgname 7D79 BJ7D79 SGAPPABP
updating label 7D7A BJ7D7A
updating sgname 7D7A BJ7D7A SGAPPABP
updating label 7D7B BJ7D7B
updating sgname 7D7B BJ7D7B SGAPPABP
updating label 7D7C BJ7D7C
updating sgname 7D7C BJ7D7C SGAPPABP
updating label 7D7D BJ7D7D
updating sgname 7D7D BJ7D7D SGAPPABP
updating label 7D7E BJ7D7E
updating sgname 7D7E BJ7D7E SGAPPABP
updating label 7D7F BJ7D7F
updating sgname 7D7F BJ7D7F SGAPPABP
updating label 7E00 BJ7E00
updating sgname 7E00 BJ7E00 SGAPPABP
updating label 7E01 BJ7E01
updating sgname 7E01 BJ7E01 SGAPPABP
updating label 7E02 BJ7E02
updating sgname 7E02 BJ7E02 SGAPPABP
updating label 7E03 BJ7E03
updating sgname 7E03 BJ7E03 SGAPPABP
updating label 7E04 BJ7E04
updating sgname 7E04 BJ7E04 SGAPPABP
updating label 7E05 BJ7E05
updating sgname 7E05 BJ7E05 SGAPPABP
updating label 7E06 BJ7E06
updating sgname 7E06 BJ7E06 SGAPPABP
updating label 7E07 BJ7E07
updating sgname 7E07 BJ7E07 SGAPPABP
updating label 7E08 BJ7E08
updating sgname 7E08 BJ7E08 SGAPPABP
updating label 7E09 BJ7E09
updating sgname 7E09 BJ7E09 SGAPPABP
updating label 7E0A BJ7E0A
updating sgname 7E0A BJ7E0A SGAPPABP
updating label 7E0B BJ7E0B
updating sgname 7E0B BJ7E0B SGAPPABP
updating label 7E0C BJ7E0C
updating sgname 7E0C BJ7E0C SGAPPABP
updating label 7E0D BJ7E0D
updating sgname 7E0D BJ7E0D SGAPPABP
updating label 7E0E BJ7E0E
updating sgname 7E0E BJ7E0E SGAPPABP
updating label 7E0F BJ7E0F
updating sgname 7E0F BJ7E0F SGAPPABP
updating label 7E10 BJ7E10
updating sgname 7E10 BJ7E10 SGAPPABP
updating label 7E11 BJ7E11
updating sgname 7E11 BJ7E11 SGAPPABP
updating label 7E12 BJ7E12
updating sgname 7E12 BJ7E12 SGAPPABP
updating label 7E13 BJ7E13
updating sgname 7E13 BJ7E13 SGAPPABP
updating label 7E14 BJ7E14
updating sgname 7E14 BJ7E14 SGAPPABP
updating label 7E15 BJ7E15
updating sgname 7E15 BJ7E15 SGAPPABP
updating label 7E16 BJ7E16
updating sgname 7E16 BJ7E16 SGAPPABP
updating label 7E17 BJ7E17
updating sgname 7E17 BJ7E17 SGAPPABP
updating label 7E18 BJ7E18
updating sgname 7E18 BJ7E18 SGAPPABP
updating label 7E19 BJ7E19
updating sgname 7E19 BJ7E19 SGAPPABP
updating label 7E1A BJ7E1A
updating sgname 7E1A BJ7E1A SGAPPABP
updating label 7E1B BJ7E1B
updating sgname 7E1B BJ7E1B SGAPPABP
updating label 7E1C BJ7E1C
updating sgname 7E1C BJ7E1C SGAPPABP
updating label 7E1D BJ7E1D
updating sgname 7E1D BJ7E1D SGAPPABP
updating label 7E1E BJ7E1E
updating sgname 7E1E BJ7E1E SGAPPABP
updating label 7E1F BJ7E1F
updating sgname 7E1F BJ7E1F SGAPPABP
updating label 7E20 BJ7E20
updating sgname 7E20 BJ7E20 SGAPPABP
updating label 7E21 BJ7E21
updating sgname 7E21 BJ7E21 SGAPPABP
updating label 7E22 BJ7E22
updating sgname 7E22 BJ7E22 SGAPPABP
updating label 7E23 BJ7E23
updating sgname 7E23 BJ7E23 SGAPPABP
updating label 7E24 BJ7E24
updating sgname 7E24 BJ7E24 SGAPPABP
updating label 7E25 BJ7E25
updating sgname 7E25 BJ7E25 SGAPPABP
updating label 7E26 BJ7E26
updating sgname 7E26 BJ7E26 SGAPPABP
updating label 7E27 BJ7E27
updating sgname 7E27 BJ7E27 SGAPPABP
updating label 7E28 BJ7E28
updating sgname 7E28 BJ7E28 SGAPPABP
updating label 7E29 BJ7E29
updating sgname 7E29 BJ7E29 SGAPPABP
updating label 7E2A BJ7E2A
updating sgname 7E2A BJ7E2A SGAPPABP
updating label 7E2B BJ7E2B
updating sgname 7E2B BJ7E2B SGAPPABP
updating label 7E2C BJ7E2C
updating sgname 7E2C BJ7E2C SGAPPABP
updating label 7E2D BJ7E2D
updating sgname 7E2D BJ7E2D SGAPPABP
updating label 7E2E BJ7E2E
updating sgname 7E2E BJ7E2E SGAPPABP
updating label 7E2F BJ7E2F
updating sgname 7E2F BJ7E2F SGAPPABP
updating label 7E30 BJ7E30
updating sgname 7E30 BJ7E30 SGAPPABP
updating label 7E31 BJ7E31
updating sgname 7E31 BJ7E31 SGAPPABP
updating label 7E32 BJ7E32
updating sgname 7E32 BJ7E32 SGAPPABP
updating label 7E33 BJ7E33
updating sgname 7E33 BJ7E33 SGAPPABP
updating label 7E34 BJ7E34
updating sgname 7E34 BJ7E34 SGAPPABP
updating label 7E35 BJ7E35
updating sgname 7E35 BJ7E35 SGAPPABP
updating label 7E36 BJ7E36
updating sgname 7E36 BJ7E36 SGAPPABP
updating label 7E37 BJ7E37
updating sgname 7E37 BJ7E37 SGAPPABP
updating label 7E38 BJ7E38
updating sgname 7E38 BJ7E38 SGAPPABP
updating label 7E39 BJ7E39
updating sgname 7E39 BJ7E39 SGAPPABP
updating label 7E3A BJ7E3A
updating sgname 7E3A BJ7E3A SGAPPABP
updating label 7E3B BJ7E3B
updating sgname 7E3B BJ7E3B SGAPPABP
updating label 7E3C BJ7E3C
updating sgname 7E3C BJ7E3C SGAPPABP
updating label 7E3D BJ7E3D
updating sgname 7E3D BJ7E3D SGAPPABP
updating label 7E3E BJ7E3E
updating sgname 7E3E BJ7E3E SGAPPABP
updating label 7E3F BJ7E3F
updating sgname 7E3F BJ7E3F SGAPPABP
updating label 7E40 BJ7E40
updating sgname 7E40 BJ7E40 SGAPPABP
updating label 7E41 BJ7E41
updating sgname 7E41 BJ7E41 SGAPPABP
updating label 7E42 BJ7E42
updating sgname 7E42 BJ7E42 SGAPPABP
updating label 7E43 BJ7E43
updating sgname 7E43 BJ7E43 SGAPPABP
updating label 7E44 BJ7E44
updating sgname 7E44 BJ7E44 SGAPPABP
updating label 7E45 BJ7E45
updating sgname 7E45 BJ7E45 SGAPPABP
updating label 7E46 BJ7E46
updating sgname 7E46 BJ7E46 SGAPPABP
updating label 7E47 BJ7E47
updating sgname 7E47 BJ7E47 SGAPPABP
updating label 7E48 BJ7E48
updating sgname 7E48 BJ7E48 SGAPPABP
updating label 7E49 BJ7E49
updating sgname 7E49 BJ7E49 SGAPPABP
updating label 7E4A BJ7E4A
updating sgname 7E4A BJ7E4A SGAPPABP
updating label 7E4B BJ7E4B
updating sgname 7E4B BJ7E4B SGAPPABP
updating label 7E4C BJ7E4C
updating sgname 7E4C BJ7E4C SGAPPABP
updating label 7E4D BJ7E4D
updating sgname 7E4D BJ7E4D SGAPPABP
updating label 7E4E BJ7E4E
updating sgname 7E4E BJ7E4E SGAPPABP
updating label 7E4F BJ7E4F
updating sgname 7E4F BJ7E4F SGAPPABP
updating label 7E50 BJ7E50
updating sgname 7E50 BJ7E50 SGAPPABP
updating label 7E51 BJ7E51
updating sgname 7E51 BJ7E51 SGAPPABP
updating label 7E52 BJ7E52
updating sgname 7E52 BJ7E52 SGAPPABP
updating label 7E53 BJ7E53
updating sgname 7E53 BJ7E53 SGAPPABP
updating label 7E54 BJ7E54
updating sgname 7E54 BJ7E54 SGAPPABP
updating label 7E55 BJ7E55
updating sgname 7E55 BJ7E55 SGAPPABP
updating label 7E56 BJ7E56
updating sgname 7E56 BJ7E56 SGAPPABP
updating label 7E57 BJ7E57
updating sgname 7E57 BJ7E57 SGAPPABP
updating label 7E58 BJ7E58
updating sgname 7E58 BJ7E58 SGAPPABP
updating label 7E59 BJ7E59
updating sgname 7E59 BJ7E59 SGAPPABP
updating label 7E5A BJ7E5A
updating sgname 7E5A BJ7E5A SGAPPABP
updating label 7E5B BJ7E5B
updating sgname 7E5B BJ7E5B SGAPPABP
updating label 7E5C BJ7E5C
updating sgname 7E5C BJ7E5C SGAPPABP
updating label 7E5D BJ7E5D
updating sgname 7E5D BJ7E5D SGAPPABP
updating label 7E5E BJ7E5E
updating sgname 7E5E BJ7E5E SGAPPABP
updating label 7E5F BJ7E5F
updating sgname 7E5F BJ7E5F SGAPPABP
updating label 7E60 BJ7E60
updating sgname 7E60 BJ7E60 SGAPPABP
updating label 7E61 BJ7E61
updating sgname 7E61 BJ7E61 SGAPPABP
updating label 7E62 BJ7E62
updating sgname 7E62 BJ7E62 SGAPPABP
updating label 7E63 BJ7E63
updating sgname 7E63 BJ7E63 SGAPPABP
updating label 7E64 BJ7E64
updating sgname 7E64 BJ7E64 SGAPPABP
updating label 7E65 BJ7E65
updating sgname 7E65 BJ7E65 SGAPPABP
updating label 7E66 BJ7E66
updating sgname 7E66 BJ7E66 SGAPPABP
updating label 7E67 BJ7E67
updating sgname 7E67 BJ7E67 SGAPPABP
updating label 7E68 BJ7E68
updating sgname 7E68 BJ7E68 SGAPPABP
updating label 7E69 BJ7E69
updating sgname 7E69 BJ7E69 SGAPPABP
updating label 7E6A BJ7E6A
updating sgname 7E6A BJ7E6A SGAPPABP
updating label 7E6B BJ7E6B
updating sgname 7E6B BJ7E6B SGAPPABP
updating label 7E6C BJ7E6C
updating sgname 7E6C BJ7E6C SGAPPABP
updating label 7E6D BJ7E6D
updating sgname 7E6D BJ7E6D SGAPPABP
updating label 7E6E BJ7E6E
updating sgname 7E6E BJ7E6E SGAPPABP
updating label 7E6F BJ7E6F
updating sgname 7E6F BJ7E6F SGAPPABP
updating label 7E70 BJ7E70
updating sgname 7E70 BJ7E70 SGAPPABP
updating label 7E71 BJ7E71
updating sgname 7E71 BJ7E71 SGAPPABP
updating label 7E72 BJ7E72
updating sgname 7E72 BJ7E72 SGAPPABP
updating label 7E73 BJ7E73
updating sgname 7E73 BJ7E73 SGAPPABP
updating label 7E74 BJ7E74
updating sgname 7E74 BJ7E74 SGAPPABP
updating label 7E75 BJ7E75
updating sgname 7E75 BJ7E75 SGAPPABP
updating label 7E76 BJ7E76
updating sgname 7E76 BJ7E76 SGAPPABP
updating label 7E77 BJ7E77
updating sgname 7E77 BJ7E77 SGAPPABP
updating label 7E78 BJ7E78
updating sgname 7E78 BJ7E78 SGAPPABP
updating label 7E79 BJ7E79
updating sgname 7E79 BJ7E79 SGAPPABP
updating label 7E7A BJ7E7A
updating sgname 7E7A BJ7E7A SGAPPABP
updating label 7E7B BJ7E7B
updating sgname 7E7B BJ7E7B SGAPPABP
updating label 7E7C BJ7E7C
updating sgname 7E7C BJ7E7C SGAPPABP
updating label 7E7D BJ7E7D
updating sgname 7E7D BJ7E7D SGAPPABP
updating label 7E7E BJ7E7E
updating sgname 7E7E BJ7E7E SGAPPABP
updating label 7E7F BJ7E7F
updating sgname 7E7F BJ7E7F SGAPPABP

new dasdmap created.

PROGRAM ENDED AT: 2019-12-30 21:42:56
PROGRAM STARTED AT: 2019-12-30 21:54:24

reading dasdinfo..

reading dasdinfo complete,total 3750 devices prepared.

updating dasdmap..
data polished:
['400D', '3390', 'A', 'BPAJK1', 'PRIV/RSDNT', '0']
clearing sgname 7D0ABJ7D0A
clearing sgname 7D0BBJ7D0B
clearing sgname 7D0FBJ7D0F

dasdmap updated.

PROGRAM ENDED AT: 2019-12-30 21:56:23

PROGRAM STARTED AT: 2019-12-30 22:00:55

reading dasdinfo..

reading dasdinfo complete,total 3750 devices prepared.

updating dasdmap..

PROGRAM STARTED AT: 2019-12-30 22:08:23

reading dasdinfo..

reading dasdinfo complete,total 3750 devices prepared.

updating dasdmap..
data polished:
['400D', '3390', 'A', 'BPAJK1', 'PRIV/RSDNT', '0']
clearing sgname:5223,BPAK36
clearing sgname:5224,BPAK37
clearing sgname:5225,BPAK38
clearing sgname:5226,BPAK39
clearing sgname:5227,BPAK40
clearing sgname:7D17,BJ7D17
clearing sgname:7D25,BJ7D25
clearing sgname:7D2B,BJ7D2B
clearing sgname:7D35,BJ7D35
clearing sgname:7D36,BJ7D36
clearing sgname:7D37,BJ7D37
clearing sgname:7D38,BJ7D38
clearing sgname:7D50,BJ7D50
clearing sgname:7D51,BJ7D51
clearing sgname:7D52,BJ7D52
clearing sgname:7D53,BJ7D53
clearing sgname:7D54,BJ7D54
clearing sgname:7D55,BJ7D55
clearing sgname:7D5C,BJ7D5C
clearing sgname:7D5D,BJ7D5D
clearing sgname:7D5E,BJ7D5E
clearing sgname:7D5F,BJ7D5F

dasdmap updated.

PROGRAM ENDED AT: 2019-12-30 22:10:29
